# vtk DataFile Version 4.2
vtk output
ASCII
DATASET UNSTRUCTURED_GRID
POINTS 12442 float
-40.0244 -35.6344 2 -40.0244 -35.6344 0 -100.024 -35.6344 2 
-100.024 -35.6344 0 -40.0244 64.3656 2 -40.0244 64.3656 0 
-100.024 64.3656 2 -100.024 64.3656 0 -70.9512 -0.588361 2 
-70.9512 -0.588361 0 -68.9512 -0.588361 2 -68.9512 -0.588361 0 
-68.9512 29.4116 2 -68.9512 29.4116 0 -70.9512 29.4116 2 
-70.9512 29.4116 0 -42.1244 -35.6344 0 -44.4044 -35.6344 0 
-46.5644 -35.6344 0 -48.8444 -35.6344 0 -50.8844 -35.6344 0 
-53.1644 -35.6344 0 -55.2044 -35.6344 0 -57.3044 -35.6344 0 
-59.3444 -35.6344 0 -61.5044 -35.6344 0 -63.8444 -35.6344 0 
-66.0644 -35.6344 0 -68.1644 -35.6344 0 -70.3844 -35.6344 0 
-72.4844 -35.6344 0 -74.5844 -35.6344 0 -76.6244 -35.6344 0 
-78.7244 -35.6344 0 -80.8244 -35.6344 0 -83.0444 -35.6344 0 
-85.1444 -35.6344 0 -87.2444 -35.6344 0 -89.2844 -35.6344 0 
-91.3244 -35.6344 0 -93.4844 -35.6344 0 -95.8244 -35.6344 0 
-97.9244 -35.6344 0 -42.1244 -35.6344 2 -44.4644 -35.6344 2 
-46.5644 -35.6344 2 -48.7844 -35.6344 2 -51.0644 -35.6344 2 
-53.1644 -35.6344 2 -55.5644 -35.6344 2 -57.6044 -35.6344 2 
-59.8844 -35.6344 2 -62.3444 -35.6344 2 -64.4444 -35.6344 2 
-66.7244 -35.6344 2 -68.8844 -35.6344 2 -70.9844 -35.6344 2 
-73.0844 -35.6344 2 -75.3044 -35.6344 2 -77.5844 -35.6344 2 
-79.6844 -35.6344 2 -82.0244 -35.6344 2 -84.1244 -35.6344 2 
-86.3444 -35.6344 2 -88.5644 -35.6344 2 -90.7244 -35.6344 2 
-93.1244 -35.6344 2 -95.3444 -35.6344 2 -97.6244 -35.6344 2 
-97.6244 64.3656 2 -95.5244 64.3656 2 -93.3644 64.3656 2 
-91.1444 64.3656 2 -89.1044 64.3656 2 -87.0644 64.3656 2 
-84.9044 64.3656 2 -82.7444 64.3656 2 -80.6444 64.3656 2 
-78.6044 64.3656 2 -76.5644 64.3656 2 -74.2244 64.3656 2 
-72.2444 64.3656 2 -70.0244 64.3656 2 -67.8644 64.3656 2 
-65.7644 64.3656 2 -63.4844 64.3656 2 -61.5044 64.3656 2 
-59.2844 64.3656 2 -56.8844 64.3656 2 -54.8444 64.3656 2 
-52.6244 64.3656 2 -50.5244 64.3656 2 -48.3644 64.3656 2 
-46.3244 64.3656 2 -44.2244 64.3656 2 -42.0044 64.3656 2 
-100.024 -33.3344 2 -100.024 -31.0344 2 -100.024 -28.8344 2 
-100.024 -26.7344 2 -100.024 -24.4344 2 -100.024 -22.2344 2 
-100.024 -19.9344 2 -100.024 -17.8344 2 -100.024 -15.7344 2 
-100.024 -13.4344 2 -100.024 -11.3344 2 -100.024 -9.1344 2 
-100.024 -7.1344 2 -100.024 -4.9344 2 -100.024 -2.8344 2 
-100.024 -0.434396 2 -100.024 1.7656 2 -100.024 4.0656 2 
-100.024 6.0656 2 -100.024 8.3656 2 -100.024 10.4656 2 
-100.024 12.5656 2 -100.024 14.7656 2 -100.024 16.7656 2 
-100.024 18.9656 2 -100.024 21.3656 2 -100.024 23.5656 2 
-100.024 25.7656 2 -100.024 27.8656 2 -100.024 30.0656 2 
-100.024 32.0656 2 -100.024 34.1656 2 -100.024 36.2656 2 
-100.024 38.4656 2 -100.024 40.4656 2 -100.024 42.6656 2 
-100.024 44.8656 2 -100.024 47.0656 2 -100.024 49.1656 2 
-100.024 51.3656 2 -100.024 53.5656 2 -100.024 55.6656 2 
-100.024 57.9656 2 -100.024 60.1656 2 -100.024 62.1656 2 
-40.0244 62.2656 2 -40.0244 59.9656 2 -40.0244 57.9656 2 
-40.0244 55.8656 2 -40.0244 53.7656 2 -40.0244 51.3656 2 
-40.0244 49.2656 2 -40.0244 47.1656 2 -40.0244 44.9656 2 
-40.0244 42.6656 2 -40.0244 40.5656 2 -40.0244 38.3656 2 
-40.0244 36.0656 2 -40.0244 33.9656 2 -40.0244 31.9656 2 
-40.0244 29.8656 2 -40.0244 27.7656 2 -40.0244 25.3656 2 
-40.0244 23.1656 2 -40.0244 20.8656 2 -40.0244 18.8656 2 
-40.0244 16.6656 2 -40.0244 14.3656 2 -40.0244 12.2656 2 
-40.0244 10.2656 2 -40.0244 7.9656 2 -40.0244 5.8656 2 
-40.0244 3.5656 2 -40.0244 1.4656 2 -40.0244 -0.934396 2 
-40.0244 -2.9344 2 -40.0244 -5.2344 2 -40.0244 -7.3344 2 
-40.0244 -9.5344 2 -40.0244 -11.5344 2 -40.0244 -13.9344 2 
-40.0244 -16.1344 2 -40.0244 -18.4344 2 -40.0244 -20.5344 2 
-40.0244 -22.6344 2 -40.0244 -24.8344 2 -40.0244 -26.9344 2 
-40.0244 -29.1344 2 -40.0244 -31.4344 2 -40.0244 -33.4344 2 
-68.9512 27.2516 2 -68.9512 24.8516 2 -68.9512 22.6016 2 
-68.9512 20.5616 2 -68.9512 18.3116 2 -68.9512 16.2416 2 
-68.9512 14.1116 2 -68.9512 11.8916 2 -68.9512 9.85164 2 
-68.9512 7.51164 2 -68.9512 5.50164 2 -68.9512 3.40164 2 
-68.9512 1.42164 2 -70.9512 1.48164 2 -70.9512 3.61164 2 
-70.9512 5.65164 2 -70.9512 7.75164 2 -70.9512 9.82164 2 
-70.9512 11.8616 2 -70.9512 14.1116 2 -70.9512 16.2716 2 
-70.9512 18.4316 2 -70.9512 20.7416 2 -70.9512 22.8116 2 
-70.9512 25.0916 2 -70.9512 27.2216 2 -97.8644 64.3656 0 
-95.7044 64.3656 0 -93.6044 64.3656 0 -91.5644 64.3656 0 
-89.4644 64.3656 0 -87.4244 64.3656 0 -85.2044 64.3656 0 
-83.1044 64.3656 0 -81.0044 64.3656 0 -78.5444 64.3656 0 
-76.2644 64.3656 0 -74.1644 64.3656 0 -72.1244 64.3656 0 
-69.7844 64.3656 0 -67.6844 64.3656 0 -65.5844 64.3656 0 
-63.4844 64.3656 0 -61.3244 64.3656 0 -59.2244 64.3656 0 
-57.0044 64.3656 0 -54.9044 64.3656 0 -52.7444 64.3656 0 
-50.7044 64.3656 0 -48.5444 64.3656 0 -46.5044 64.3656 0 
-44.3444 64.3656 0 -42.0644 64.3656 0 -100.024 -33.5344 0 
-100.024 -31.4344 0 -100.024 -29.2344 0 -100.024 -27.1344 0 
-100.024 -24.8344 0 -100.024 -22.7344 0 -100.024 -20.5344 0 
-100.024 -18.3344 0 -100.024 -16.0344 0 -100.024 -13.8344 0 
-100.024 -11.5344 0 -100.024 -9.3344 0 -100.024 -7.2344 0 
-100.024 -5.1344 0 -100.024 -3.0344 0 -100.024 -0.934396 0 
-100.024 1.1656 0 -100.024 3.1656 0 -100.024 5.3656 0 
-100.024 7.5656 0 -100.024 9.7656 0 -100.024 11.9656 0 
-100.024 14.0656 0 -100.024 16.3656 0 -100.024 18.5656 0 
-100.024 20.6656 0 -100.024 22.7656 0 -100.024 25.1656 0 
-100.024 27.2656 0 -100.024 29.3656 0 -100.024 31.5656 0 
-100.024 33.6656 0 -100.024 35.7656 0 -100.024 38.0656 0 
-100.024 40.1656 0 -100.024 42.4656 0 -100.024 44.4656 0 
-100.024 46.7656 0 -100.024 48.8656 0 -100.024 50.9656 0 
-100.024 53.1656 0 -100.024 55.4656 0 -100.024 57.5656 0 
-100.024 59.8656 0 -100.024 62.2656 0 -40.0244 62.1656 0 
-40.0244 59.7656 0 -40.0244 57.5656 0 -40.0244 55.3656 0 
-40.0244 53.3656 0 -40.0244 51.0656 0 -40.0244 48.9656 0 
-40.0244 46.8656 0 -40.0244 44.6656 0 -40.0244 42.5656 0 
-40.0244 40.4656 0 -40.0244 38.0656 0 -40.0244 35.9656 0 
-40.0244 33.8656 0 -40.0244 31.6656 0 -40.0244 29.5656 0 
-40.0244 27.3656 0 -40.0244 25.0656 0 -40.0244 22.9656 0 
-40.0244 20.5656 0 -40.0244 18.4656 0 -40.0244 15.7656 0 
-40.0244 13.6656 0 -40.0244 11.4656 0 -40.0244 9.1656 0 
-40.0244 7.1656 0 -40.0244 5.0656 0 -40.0244 2.7656 0 
-40.0244 0.765604 0 -40.0244 -1.3344 0 -40.0244 -3.6344 0 
-40.0244 -5.8344 0 -40.0244 -7.9344 0 -40.0244 -10.0344 0 
-40.0244 -12.2344 0 -40.0244 -14.3344 0 -40.0244 -16.4344 0 
-40.0244 -18.5344 0 -40.0244 -20.7344 0 -40.0244 -22.8344 0 
-40.0244 -24.9344 0 -40.0244 -27.1344 0 -40.0244 -29.2344 0 
-40.0244 -31.3344 0 -40.0244 -33.4344 0 -68.9512 27.4016 0 
-68.9512 25.0616 0 -68.9512 22.8716 0 -68.9512 20.8616 0 
-68.9512 18.5816 0 -68.9512 16.6016 0 -68.9512 14.4416 0 
-68.9512 12.1016 0 -68.9512 9.97164 0 -68.9512 7.72164 0 
-68.9512 5.68164 0 -68.9512 3.55164 0 -68.9512 1.51164 0 
-70.9512 1.63164 0 -70.9512 4.03164 0 -70.9512 6.16164 0 
-70.9512 8.35164 0 -70.9512 10.5716 0 -70.9512 12.7916 0 
-70.9512 14.8616 0 -70.9512 16.9016 0 -70.9512 18.9716 0 
-70.9512 21.0416 0 -70.9512 23.1116 0 -70.9512 25.1516 0 
-70.9512 27.3716 0 -96.9757 62.5707 2 -94.7402 62.6747 2 
-92.442 62.6823 2 -90.3963 62.4982 2 -88.2685 62.3824 2 
-86.1668 62.3806 2 -83.9299 62.3597 2 -81.8027 62.3267 2 
-79.6028 62.2985 2 -77.5019 62.3302 2 -75.378 62.3243 2 
-73.2594 62.327 2 -71.1156 62.3653 2 -68.9391 62.3887 2 
-66.7826 62.3878 2 -64.5559 62.3854 2 -62.5067 62.394 2 
-60.2965 62.4419 2 -58.05 62.4594 2 -55.8929 62.4337 2 
-53.6761 62.4002 2 -51.5256 62.3869 2 -49.4272 62.452 2 
-47.3755 62.5458 2 -45.4513 62.6847 2 -43.3869 62.4982 2 
-41.5454 62.1857 2 -98.0802 -32.6072 2 -98.0699 -30.1341 2 
-98.049 -27.874 2 -98.023 -25.5723 2 -97.9816 -23.4175 2 
-97.9934 -21.1832 2 -97.9409 -18.8857 2 -97.8797 -16.6983 2 
-97.9527 -14.6295 2 -97.9276 -12.4558 2 -97.9162 -10.2241 2 
-97.9356 -8.09859 2 -97.992 -5.99 2 -97.9899 -3.76072 2 
-97.9451 -1.55905 2 -97.9632 0.725433 2 -97.9911 2.82843 2 
-97.9786 5.02948 2 -97.9398 7.25593 2 -97.9668 9.39153 2 
-97.9932 11.4758 2 -98.014 13.6522 2 -98.0263 15.7921 2 
-98.0209 18.0448 2 -97.9829 20.2389 2 -98.0319 22.4403 2 
-98.0853 24.533 2 -98.0839 26.7418 2 -98.0416 28.9234 2 
-98.014 30.9441 2 -98.0631 33.0437 2 -98.0048 35.1458 2 
-97.9481 37.282 2 -97.9243 39.4456 2 -97.9301 41.5778 2 
-97.9722 43.7574 2 -98.0023 45.8718 2 -97.9832 48.0528 2 
-97.9686 50.2915 2 -97.9809 52.5143 2 -97.9502 54.6287 2 
-97.9776 56.8667 2 -98.0321 58.9697 2 -98.2039 60.9351 2 
-41.5981 58.5419 2 -41.7371 56.7495 2 -41.8187 54.5984 2 
-41.9039 52.4062 2 -41.9399 50.1277 2 -42.0043 47.9197 2 
-42.0087 45.768 2 -41.9873 43.5286 2 -41.9903 41.3206 2 
-42.0216 39.1626 2 -42.0147 36.9545 2 -42.0368 34.8582 2 
-42.0571 32.7533 2 -42.0154 30.6517 2 -41.9701 28.4098 2 
-41.999 26.1685 2 -42.0449 23.979 2 -42.0728 21.7763 2 
-42.0978 19.585 2 -42.0599 17.414 2 -42.025 15.2478 2 
-41.9541 13.1593 2 -41.912 11.0404 2 -41.9225 8.74665 2 
-41.9606 6.6011 2 -41.9774 4.45497 2 -41.9581 2.24709 2 
-42.0193 -0.0737864 2 -42.0201 -2.16594 2 -41.9986 -4.37336 2 
-41.9975 -6.54017 2 -42.0096 -8.70263 2 -41.9868 -10.8885 2 
-41.953 -13.062 2 -41.921 -15.2771 2 -41.973 -17.4892 2 
-42.0066 -19.7517 2 -41.9989 -21.9133 2 -41.9266 -23.9442 2 
-41.8467 -26.1507 2 -41.8822 -28.3478 2 -41.8297 -30.6223 2 
-41.7413 -32.8249 2 -43.4461 -33.994 2 -45.3968 -33.8073 2 
-47.547 -33.7762 2 -49.8649 -33.8164 2 -52.0505 -33.713 2 
-54.2457 -33.6736 2 -56.5465 -33.6533 2 -58.7986 -33.6443 2 
-61.104 -33.6312 2 -63.2669 -33.6037 2 -65.5037 -33.6145 2 
-67.7614 -33.6406 2 -69.8773 -33.6153 2 -72.0706 -33.5787 2 
-74.1732 -33.5923 2 -76.4152 -33.6095 2 -78.6466 -33.6366 2 
-80.8961 -33.661 2 -83.0354 -33.6906 2 -85.3107 -33.7135 2 
-87.4931 -33.7501 2 -89.6653 -33.75 2 -91.9676 -33.7453 2 
-94.2819 -33.7815 2 -96.2835 -33.8756 2 -69.9358 31.4888 2 
-66.7937 28.833 2 -66.6482 26.4727 2 -66.6938 23.9856 2 
-66.752 21.7029 2 -66.7924 19.5702 2 -66.7933 17.3406 2 
-66.8002 15.2539 2 -66.8569 13.0512 2 -66.8618 10.8463 2 
[...]
POINT_DATA 12442
FIELD FieldData 19
Displacement 3 12442 double
0 0 0 0 0 0 0 0 0 
0 0 0 -4.29811 31.7776 -0.270188 -4.30129 31.776 -0.00343149 
4.31439 31.7914 -0.189108 4.31223 31.7899 0.0776514 0.084746 12.8061 -0.0530049 
0.07051 12.8146 0.0995445 -0.119934 12.8025 -0.0696879 -0.0890243 12.8022 0.115497 
-0.100285 17.9797 -0.156024 -0.104976 17.9665 0.0204133 0.0710763 17.9589 -0.137422 
0.0822584 17.969 0.00965449 0 0 0 0 0 0 
0 0 0 0 0 0 0 0 0 
0 0 0 0 0 0 0 0 0 
0 0 0 0 0 0 0 0 0 
0 0 0 0 0 0 0 0 0 
0 0 0 0 0 0 0 0 0 
0 0 0 0 0 0 0 0 0 
0 0 0 0 0 0 0 0 0 
0 0 0 0 0 0 0 0 0 
0 0 0 0 0 0 0 0 0 
0 0 0 0 0 0 0 0 0 
0 0 0 0 0 0 0 0 0 
0 0 0 0 0 0 0 0 0 
0 0 0 0 0 0 0 0 0 
0 0 0 0 0 0 0 0 0 
0 0 0 0 0 0 0 0 0 
0 0 0 0 0 0 0 0 0 
0 0 0 0 0 0 0 0 0 
3.99478 31.7483 -0.191787 3.71519 31.7087 -0.194022 3.42645 31.6649 -0.196074 
3.12677 31.6166 -0.197882 2.84767 31.57 -0.199367 2.56416 31.5222 -0.20071 
2.25852 31.4717 -0.20207 1.94689 31.423 -0.203412 1.63812 31.379 -0.204787 
1.33293 31.3409 -0.206269 1.02311 31.3089 -0.20786 0.66295 31.2814 -0.210061 
0.3555 31.2668 -0.2122 0.00904345 31.2605 -0.21497 -0.328068 31.2651 -0.218052 
-0.654331 31.2794 -0.221411 -1.00541 31.3052 -0.225484 -1.30635 31.335 -0.229195 
-1.63867 31.3754 -0.233654 -1.99096 31.4252 -0.238594 -2.28448 31.4708 -0.24286 
-2.59787 31.5219 -0.247479 -2.88892 31.5701 -0.251761 -3.18354 31.6182 -0.25601 
-3.45834 31.6612 -0.259801 -3.73878 31.7024 -0.263474 -4.03432 31.7429 -0.267083 
1.05641 1.17155 -0.215517 1.75874 2.02261 -0.111593 2.23226 2.72928 -0.0891951 
2.59181 3.36155 -0.0768548 2.90685 4.02695 -0.0690478 3.14633 4.64856 -0.064629 
3.34294 5.29028 -0.0619264 3.48145 5.87304 -0.0607101 3.58572 6.45557 -0.06054 
3.66541 7.0956 -0.0612484 3.71033 7.68371 -0.0626547 3.73239 8.30545 -0.0648763 
3.73311 8.87709 -0.067651 3.71633 9.51432 -0.0712216 3.6865 10.1322 -0.0753524 
3.64081 10.851 -0.0807394 3.59278 11.5221 -0.0862084 3.54123 12.2363 -0.0923136 
3.49895 12.8671 -0.097832 3.45705 13.6027 -0.104222 3.42787 14.2822 -0.11001 
3.40944 14.9676 -0.115646 3.40307 15.6899 -0.121293 3.40933 16.3486 -0.126121 
3.42933 17.0735 -0.131047 3.46577 17.8627 -0.135946 3.51078 18.5828 -0.139981 
3.56451 19.2985 -0.143624 3.62145 19.977 -0.146773 3.68421 20.6829 -0.149813 
3.74168 21.3206 -0.152407 3.80032 21.9869 -0.155034 3.85548 22.6511 -0.157621 
3.90827 23.3463 -0.160355 3.95126 23.9789 -0.162872 3.99304 24.6769 -0.165678 
4.02958 25.3786 -0.168509 4.06185 26.0847 -0.171336 4.08986 26.7635 -0.174009 
4.11766 27.4798 -0.176741 4.14537 28.2014 -0.179358 4.17302 28.8946 -0.181692 
4.20591 29.6579 -0.184028 4.2407 30.3907 -0.18599 4.27505 31.0577 -0.187507 
-4.26137 31.0773 -0.268579 -4.2229 30.3102 -0.26673 -4.19235 29.6441 -0.264796 
-4.16316 28.9471 -0.262535 -4.13632 28.2536 -0.26004 -4.10718 27.4664 -0.256978 
-4.08164 26.7827 -0.25415 -4.05467 26.104 -0.251229 -4.02349 25.3981 -0.248103 
-3.9863 24.665 -0.244777 -3.94726 23.9991 -0.241711 -3.90062 23.3038 -0.238499 
-3.84554 22.5779 -0.23518 -3.79032 21.9142 -0.232154 -3.73451 21.28 -0.229244 
-3.67425 20.6108 -0.22612 -3.6145 19.9373 -0.222864 -3.55006 19.1618 -0.218872 
-3.49771 18.4458 -0.214903 -3.45289 17.6927 -0.210365 -3.4241 17.0351 -0.206093 
-3.40488 16.3106 -0.201031 -3.39963 15.5537 -0.195345 -3.40813 14.8652 -0.189841 
-3.4274 14.2134 -0.184348 -3.46144 13.4708 -0.177799 -3.50134 12.8009 -0.171684 
-3.55134 12.0779 -0.164932 -3.59916 11.4285 -0.158769 -3.65141 10.6995 -0.151903 
-3.68896 10.1028 -0.146362 -3.72083 9.42805 -0.140273 -3.73537 8.82164 -0.134986 
-3.73183 8.19488 -0.12974 -3.70886 7.63133 -0.125196 -3.65263 6.961 -0.119947 
-3.56978 6.3503 -0.115254 -3.44672 5.71342 -0.110452 -3.29723 5.13109 -0.106196 
-3.10698 4.54518 -0.102041 -2.85666 3.92328 -0.0977577 -2.55934 3.31556 -0.0938302 
-2.17225 2.65306 -0.0901387 -1.65485 1.91318 -0.0913753 -1.03259 1.20578 -0.132099 
-0.0540548 17.6346 -0.115542 -0.0677924 17.2749 -0.117094 -0.0729681 16.9003 -0.117714 
-0.0762265 16.5414 -0.116885 -0.0790091 16.1318 -0.114252 -0.0803221 15.7468 -0.111154 
-0.0810497 15.3465 -0.106894 -0.0808961 14.9293 -0.102121 -0.0800542 14.55 -0.0967008 
-0.0777483 14.1242 -0.0890635 -0.0747783 13.7722 -0.0808119 -0.0688817 13.4222 -0.0699786 
-0.0552361 13.1274 -0.050683 0.0314742 13.1406 -0.0548385 0.0460833 13.4617 -0.0702202 
0.0541835 13.7988 -0.0798719 0.0584812 14.1674 -0.0877571 0.0606561 14.5443 -0.0948035 
0.0622883 14.9237 -0.0996854 0.0630218 15.3465 -0.104409 0.0627126 15.7525 -0.108565 
0.0616377 16.1541 -0.111772 0.0599049 16.5738 -0.113771 0.0566904 16.9359 -0.11455 
0.0502248 17.3115 -0.112767 0.0399876 17.6373 -0.109572 4.02448 31.7511 0.0752972 
3.73697 31.7108 0.0728843 3.45635 31.6685 0.0702493 3.18148 31.6246 0.0674068 
2.89495 31.5769 0.0642763 2.61226 31.5293 0.0610836 2.29903 31.4773 0.0574724 
1.99695 31.4295 0.0539743 1.68912 31.3848 0.0504229 1.3215 31.3384 0.046305 
0.974679 31.3034 0.0426032 0.651144 31.2794 0.0393608 0.334057 31.2647 0.036255 
-0.0312268 31.2591 0.0330126 -0.358977 31.2646 0.0303173 -0.685152 31.2797 0.027798 
-1.00831 31.3037 0.0254454 -1.33656 31.3367 0.0231265 -1.65056 31.3752 0.0209548 
-1.97658 31.4212 0.0186811 -2.27907 31.468 0.0164883 -2.58427 31.5176 0.0141649 
-2.86738 31.5645 0.0118483 -3.16238 31.6128 0.00923924 -3.43738 31.656 0.00655102 
-3.72602 31.6987 0.00345798 -4.02946 31.7403 -0.000139006 0.997563 1.16551 0.217134 
1.66055 1.90437 0.149022 2.14766 2.61514 0.154872 2.52117 3.24993 0.156942 
2.84962 3.91666 0.158043 3.08954 4.51084 0.158939 3.28984 5.12511 0.159833 
3.44545 5.73547 0.160681 3.56688 6.37275 0.161281 3.64844 6.98403 0.161732 
3.70189 7.62702 0.162081 3.72641 8.24772 0.162256 3.72883 8.84696 0.162361 
3.71414 9.45432 0.162169 3.68563 10.0708 0.161858 3.64712 10.6975 0.161241 
3.60241 11.3348 0.16028 3.55762 11.9519 0.158967 3.50978 12.6416 0.156981 
3.4672 13.3416 0.154418 3.43319 14.0506 0.151257 3.41031 14.7667 0.147512 
3.40047 15.4551 0.143445 3.40409 16.2121 0.138525 3.4217 16.9372 0.133462 
3.45072 17.6283 0.12839 3.49037 18.3171 0.12319 3.54631 19.0997 0.11727 
3.60199 19.7799 0.112246 3.66136 20.4553 0.107504 3.72475 21.1583 0.10297 
3.78404 21.8257 0.0991492 3.84023 22.4906 0.0958686 3.89667 23.2176 0.0928961 
3.94275 23.8818 0.0907232 3.98715 24.6114 0.0888588 4.021 25.2489 0.0876038 
4.0554 25.9864 0.0864706 4.08373 26.6646 0.0856294 4.11042 27.3476 0.0848805 
4.13804 28.0683 0.0841169 4.16807 28.8269 0.0832445 4.19771 29.5234 0.0823004 
4.23349 30.2891 0.0809951 4.2746 31.0897 0.0792409 -4.26277 31.0424 -0.00163301 
-4.22288 30.2419 0.000153653 -4.18972 29.5095 0.00152428 -4.15974 28.78 0.00265113 
-4.13453 28.1203 0.00355558 -4.10668 27.3666 0.0045575 -4.08099 26.6836 0.00550207 
-4.05369 26.0055 0.00656846 -4.02198 25.3001 0.00791191 -3.98755 24.631 0.00952288 
-3.9482 23.965 0.0115504 -3.89663 23.2065 0.0144598 -3.84579 22.5433 0.0175659 
-3.7903 21.8793 0.0212244 -3.72859 21.1811 0.0256266 -3.66819 20.511 0.0303208 
-3.60588 19.8044 0.0356307 -3.54491 19.0602 0.0414619 -3.49577 18.376 0.0469077 
-3.45027 17.5895 0.0530672 -3.42189 16.8987 0.0582843 -3.4032 16.0095 0.0645735 
-3.40321 15.3192 0.0690481 -3.41665 14.5994 0.0732822 -3.44418 13.8528 0.0771879 
-3.47763 13.2104 0.0801275 -3.5199 12.544 0.0827905 -3.57109 11.8254 0.0852903 
-3.6163 11.2107 0.0871776 -3.6607 10.5758 0.0890108 -3.70118 9.89277 0.0909602 
-3.72735 9.25054 0.0929133 -3.73701 8.64658 0.0949676 -3.72826 8.05015 0.0972985 
-3.6959 7.43181 0.100099 -3.63964 6.84617 0.103229 -3.55538 6.26339 0.106881 
-3.43955 5.68168 0.111183 -3.27982 5.07109 0.116526 -3.0852 4.48406 0.122765 
-2.84244 3.88884 0.130775 -2.52626 3.24949 0.142054 -2.15125 2.612 0.157262 
-1.67614 1.92646 0.186373 -1.02809 1.1377 0.248984 -0.0527875 17.6686 0.00354164 
-0.069581 17.3054 0.0155363 -0.0754663 16.9431 0.024624 -0.0789716 16.5916 0.0314886 
-0.0811539 16.1775 0.0385926 -0.0825817 15.8099 0.0436446 -0.0831727 15.4043 0.0486322 
-0.0830315 14.9642 0.0530543 -0.0819699 14.5674 0.0565022 -0.0800499 14.1573 0.0593548 
-0.0767108 13.7985 0.0615765 -0.071484 13.445 0.0626829 -0.0610802 13.1354 0.0651612 
0.0361016 13.1424 0.0607441 0.0477531 13.5228 0.0627838 0.0538801 13.882 0.0623774 
0.0571269 14.2714 0.0607383 0.0593536 14.679 0.0576636 0.0603329 15.0942 0.0541208 
0.06055 15.4836 0.0501083 0.0601216 15.8661 0.045323 0.0590626 16.2492 0.0395862 
0.0566167 16.6237 0.0337547 0.052815 16.9841 0.0268761 0.0464947 17.3177 0.0178861 
0.0329703 17.6474 0.00602928 3.87551 31.138 -0.190898 3.57799 31.1292 -0.193164 
3.26823 31.0829 -0.195276 2.98611 30.9747 -0.196848 2.69056 30.8851 -0.198437 
2.39681 30.8334 -0.200033 2.07906 30.7726 -0.201705 1.77204 30.7128 -0.203319 
1.44999 30.6573 -0.205083 1.13908 30.6303 -0.206911 0.82072 30.5978 -0.208952 
0.500458 30.5772 -0.211249 0.17468 30.5788 -0.213818 -0.156944 30.5861 -0.216737 
-0.484979 30.596 -0.219936 -0.821815 30.6167 -0.223557 -1.12917 30.6483 -0.227112 
-1.45754 30.7034 -0.231181 -1.78635 30.7554 -0.235477 -2.09659 30.7953 -0.23966 
-2.41025 30.8366 -0.243979 -2.71021 30.8835 -0.248155 -3.00038 30.9545 -0.252202 
-3.28133 31.0316 -0.256103 -3.54337 31.118 -0.259679 -3.81668 31.0956 -0.26307 
-4.05712 31.0244 -0.265926 1.02751 1.04001 -0.17045 1.70164 1.95776 -0.123191 
2.15802 2.7187 -0.102826 2.51962 3.44832 -0.0903939 2.78525 4.10452 -0.0829129 
3.00864 4.7741 -0.077523 3.17887 5.44715 -0.0742942 3.29773 6.08315 -0.0728848 
3.39255 6.68819 -0.0717362 3.45003 7.31923 -0.0719551 3.48211 7.96949 -0.0729492 
3.49269 8.59231 -0.0744987 3.48835 9.21447 -0.0766265 3.45947 9.87802 -0.0797309 
3.41288 10.5411 -0.0835885 3.36366 11.2371 -0.0880132 3.31647 11.8855 -0.0925516 
3.2629 12.5726 -0.0977577 3.21055 13.2755 -0.10331 3.17679 13.9554 -0.108695 
3.15421 14.6241 -0.113987 3.14247 15.3265 -0.119458 3.14353 16.0199 -0.124683 
3.15714 16.7513 -0.129952 3.18017 17.4631 -0.134812 3.22705 18.1773 -0.139309 
3.2821 18.8548 -0.143249 3.3403 19.566 -0.147125 3.39727 20.2645 -0.150694 
3.4531 20.9091 -0.153759 3.52012 21.5788 -0.156632 3.57056 22.2452 -0.159513 
3.6175 22.9221 -0.162334 3.66348 23.6091 -0.165065 3.70652 24.2886 -0.167664 
3.74935 24.9865 -0.170226 3.78476 25.6665 -0.172704 3.81107 26.3708 -0.175292 
3.83624 27.0983 -0.177881 3.86394 27.8254 -0.180332 3.88544 28.5202 -0.182601 
3.91835 29.2602 -0.184812 3.95621 29.9588 -0.186735 4.0109 30.6156 -0.188281 
-3.99156 29.8108 -0.262526 -3.94803 29.2141 -0.260465 -3.91003 28.502 -0.257999 
-3.87326 27.78 -0.255339 -3.84279 27.0348 -0.252528 -3.80856 26.3166 -0.249657 
-3.78036 25.6219 -0.246847 -3.75022 24.9035 -0.243871 -3.71203 24.1983 -0.240822 
-3.66512 23.511 -0.23774 -3.61564 22.8102 -0.23453 -3.55939 22.1446 -0.231385 
-3.49863 21.4758 -0.228112 -3.44298 20.8081 -0.224776 -3.38311 20.0934 -0.221044 
-3.31621 19.3739 -0.216962 -3.25407 18.6678 -0.212662 -3.20239 17.9554 -0.208077 
-3.16239 17.2451 -0.203238 -3.14368 16.5412 -0.198315 -3.1385 15.8388 -0.193175 
-3.15177 15.163 -0.188102 -3.1744 14.4797 -0.182737 -3.20514 13.745 -0.1767 
-3.2409 13.0641 -0.170974 -3.28678 12.3896 -0.165325 -3.34257 11.703 -0.15964 
-3.39084 10.9915 -0.153801 -3.43631 10.3573 -0.148787 -3.47746 9.69587 -0.143735 
-3.50166 9.0538 -0.139042 -3.50661 8.41872 -0.134646 -3.49405 7.78172 -0.130409 
-3.45768 7.15204 -0.126374 -3.39094 6.51222 -0.122423 -3.28103 5.86876 -0.118911 
-3.1313 5.20676 -0.115558 -2.94974 4.5698 -0.112521 -2.74211 3.96806 -0.10963 
-2.45824 3.29986 -0.106884 -2.08644 2.59362 -0.106395 -1.60549 1.82627 -0.107547 
-1.00378 1.01201 -0.124069 -0.470426 0.460674 -0.161544 -0.440525 0.481503 -0.153778 
-0.38877 0.472123 -0.163789 -0.319295 0.448177 -0.181873 -0.293861 0.466241 -0.18494 
-0.253582 0.481267 -0.190723 -0.21577 0.484459 -0.188791 -0.180011 0.489959 -0.187292 
-0.143739 0.496474 -0.186262 -0.108404 0.502405 -0.188153 -0.0710209 0.502253 -0.187496 
-0.0346351 0.495378 -0.186629 0.000521675 0.501709 -0.186944 0.0363576 0.511199 -0.186137 
0.0713075 0.507801 -0.185898 0.106397 0.502784 -0.185205 0.141087 0.493147 -0.185806 
0.175109 0.487204 -0.184686 0.208306 0.476952 -0.185008 0.242823 0.471735 -0.184217 
0.276305 0.463323 -0.184517 0.317673 0.466393 -0.184996 0.368911 0.477756 -0.18601 
0.425266 0.485189 -0.190568 0.484212 0.496485 -0.199456 -0.00975083 19.0411 -0.301033 
-0.356231 18.7453 -0.196282 -0.25702 18.081 -0.157883 -0.222448 17.472 -0.146498 
-0.215234 16.9613 -0.140437 -0.2137 16.5019 -0.136524 -0.215961 16.03 -0.13245 
-0.216997 15.5892 -0.128446 -0.213552 15.1241 -0.123676 -0.212927 14.6582 -0.118853 
-0.21366 14.196 -0.113796 -0.219842 13.6969 -0.108694 -0.223205 13.2275 -0.10331 
-0.248512 12.6705 -0.0993512 -0.377945 11.9779 -0.121879 0.0384335 11.6438 -0.224449 
0.319207 12.1218 -0.103403 0.209473 12.7869 -0.0916877 0.184147 13.3096 -0.0964875 
0.180939 13.7726 -0.102158 0.179339 14.2192 -0.107132 0.177853 14.6604 -0.11194 
0.179054 15.1338 -0.116639 0.179426 15.599 -0.12108 0.179872 16.0335 -0.12485 
0.179523 16.5146 -0.128641 0.180791 16.9721 -0.132199 0.185082 17.46 -0.136835 
0.207704 18.0184 -0.147148 0.304384 18.6482 -0.17849 0.469694 19.3102 -0.251382 
-0.50495 19.4271 -0.260736 -0.491531 11.2608 -0.188307 0.472664 11.3983 -0.170281 
0.246123 20.1292 -0.246399 3.41716 30.5913 -0.192691 3.13605 30.4104 -0.194206 
2.8512 30.2659 -0.195805 2.55237 30.1582 -0.197573 2.23188 30.0782 -0.199512 
1.91183 30.0358 -0.201502 1.58935 29.9885 -0.203522 1.26431 29.9283 -0.205615 
0.957613 29.8947 -0.20773 0.646224 29.8782 -0.210022 0.336612 29.8798 -0.212483 
0.0109922 29.8708 -0.215271 -0.321442 29.8953 -0.218379 -0.651239 29.8922 -0.221714 
-0.963188 29.94 -0.225111 -1.26683 29.9872 -0.228618 -1.61051 30.0373 -0.2328 
-1.92439 30.0611 -0.236751 -2.23249 30.0877 -0.24071 -2.5408 30.1448 -0.244758 
-2.83728 30.2183 -0.24872 -3.11841 30.3218 -0.252524 -3.38368 30.438 -0.256156 
-3.6375 30.5601 -0.259657 -0.521725 18.2186 -0.171057 -1.01999 1.11726 -0.129388 
1.68629 2.09913 -0.128344 2.08996 2.8673 -0.112248 2.39366 3.57325 -0.102241 
2.63037 4.24321 -0.095012 2.83851 4.96857 -0.089307 2.99266 5.67203 -0.0855169 
3.09676 6.30579 -0.0834248 3.16845 6.94164 -0.0822628 3.21155 7.5944 -0.0819746 
3.23476 8.2704 -0.0822834 3.22731 8.88367 -0.0834557 3.20921 9.56008 -0.0851511 
3.16681 10.2433 -0.0877567 3.11694 10.9333 -0.0909296 3.07399 11.5752 -0.0942881 
3.02045 12.2513 -0.0984461 2.96267 12.9659 -0.103311 2.92016 13.6371 -0.108116 
2.88538 14.2945 -0.113004 2.86363 14.9729 -0.118118 2.85475 15.6723 -0.123396 
2.86592 16.3946 -0.128737 2.89861 17.1043 -0.133792 2.93806 17.8141 -0.138678 
2.97962 18.457 -0.14292 3.03306 19.1247 -0.147072 3.10496 19.8444 -0.15117 
3.15623 20.5234 -0.15495 3.2086 21.1482 -0.158148 3.26627 21.8272 -0.161338 
3.32298 22.5056 -0.164253 3.37201 23.2056 -0.167115 3.40853 23.8613 -0.169698 
3.44951 24.5618 -0.172218 3.48979 25.2541 -0.174546 3.51912 25.9556 -0.176911 
3.54902 26.6766 -0.179231 3.56847 27.4325 -0.181679 3.58544 28.1322 -0.183853 
3.61486 28.8689 -0.185957 3.65906 29.6139 -0.18791 3.7022 30.431 -0.190078 
-0.758539 19.7092 -0.216532 1.06509 1.19818 -0.15842 -3.74573 29.5451 -0.258715 
-3.68115 28.8262 -0.256096 -3.62327 28.0884 -0.253384 -3.5795 27.3162 -0.250623 
-3.55068 26.5523 -0.247933 -3.52907 25.8671 -0.24546 -3.49791 25.128 -0.242633 
-3.45565 24.4105 -0.239693 -3.41909 23.7417 -0.236884 -3.36922 23.0432 -0.233721 
-3.31917 22.3548 -0.230485 -3.26198 21.6723 -0.227061 -3.19947 21.0158 -0.223536 
-3.12513 20.3027 -0.219407 -3.06291 19.5898 -0.215116 -3.00105 18.8637 -0.210447 
-2.94552 18.1963 -0.205864 -2.89593 17.4847 -0.200747 -2.87804 16.8154 -0.19603 
-2.8706 16.0918 -0.190772 -2.87757 15.4268 -0.185849 -2.89864 14.7469 -0.180761 
-2.92458 14.0414 -0.17532 -2.9674 13.3182 -0.16983 -3.00634 12.668 -0.164889 
-3.05824 11.978 -0.15986 -3.11509 11.2872 -0.155033 -3.16801 10.6038 -0.150487 
-3.21212 9.95464 -0.146398 -3.24476 9.28445 -0.142404 -3.26628 8.65398 -0.138813 
-3.26618 7.98701 -0.135243 -3.23912 7.35317 -0.132092 -3.16996 6.66878 -0.129194 
-3.07345 6.01176 -0.12661 -2.94114 5.32793 -0.124268 -2.77562 4.64975 -0.121945 
-2.57861 4.01953 -0.120324 -2.3237 3.35176 -0.118976 -1.98929 2.62738 -0.118297 
-1.54328 1.86451 -0.120878 -0.308904 20.2143 -0.249447 -0.93688 1.15096 -0.140462 
-0.72006 0.995463 -0.154651 -0.642692 1.01405 -0.166049 -0.572285 1.04836 -0.172601 
-0.506483 1.08534 -0.173497 -0.42108 1.08094 -0.17369 -0.34309 1.10025 -0.17398 
-0.268835 1.10611 -0.17414 -0.195739 1.11119 -0.173981 -0.116256 1.1084 -0.173711 
-0.0408765 1.10868 -0.173049 0.0311073 1.11977 -0.172395 0.103525 1.10314 -0.172018 
0.177352 1.10639 -0.171959 0.252065 1.09272 -0.171987 0.324335 1.07324 -0.171893 
0.396141 1.06307 -0.171354 0.465672 1.03844 -0.170739 0.534791 1.01263 -0.16979 
0.618431 1.01322 -0.168289 0.71609 1.0294 -0.165999 0.8221 1.03768 -0.16433 
-0.193962 10.2399 -0.180814 -0.625245 18.9299 -0.191838 -0.40581 16.9333 -0.147805 
-0.400804 16.3983 -0.142471 -0.396779 15.8848 -0.137558 -0.38948 15.3696 -0.132486 
-0.391602 14.8475 -0.127881 -0.399932 14.3133 -0.123576 -0.419195 13.7542 -0.120221 
-0.448899 13.1858 -0.117695 -0.515307 12.5056 -0.119141 -0.632346 11.7623 -0.129696 
-0.780257 10.9254 -0.149168 0.686786 19.5766 -0.205452 0.688978 11.2304 -0.128166 
0.532598 11.9877 -0.108398 0.351107 13.8365 -0.108203 0.340125 14.347 -0.112285 
0.338373 14.8589 -0.116662 0.330492 15.3858 -0.121079 0.329381 15.8706 -0.12524 
0.334959 16.3823 -0.129765 0.34729 16.9171 -0.135003 0.375814 17.4874 -0.142236 
0.439554 18.1553 -0.155164 0.545673 18.8421 -0.175544 0.356957 10.4555 -0.176398 
-0.435543 17.5082 -0.155835 0.435141 12.6732 -0.103232 0.37917 13.2872 -0.104958 
-3.86994 30.3184 -0.262074 -0.756502 9.76187 -0.165939 0.704147 20.3484 -0.220912 
-0.747733 20.5 -0.231925 0.733216 10.4196 -0.151978 0.772358 12.0468 -0.110577 
0.913512 19.5964 -0.186363 3.04925 29.6838 -0.192837 2.73339 29.4845 -0.194698 
2.41681 29.3911 -0.196848 2.07019 29.3072 -0.199223 1.74057 29.2124 -0.201489 
1.40876 29.1685 -0.20388 1.09634 29.16 -0.206209 0.79164 29.1294 -0.208554 
0.488874 29.1207 -0.211004 0.163159 29.103 -0.213775 -0.162549 29.0834 -0.216715 
-0.494327 29.0959 -0.219928 -0.792067 29.1396 -0.222991 -1.10711 29.2088 -0.226422 
-1.4242 29.2523 -0.230026 -1.75972 29.3004 -0.233989 -2.07312 29.3204 -0.237756 
-2.3825 29.3623 -0.241569 -2.68808 29.4387 -0.245432 -2.9837 29.5609 -0.249306 
-3.27127 29.7149 -0.253187 1.6479 2.31923 -0.132477 1.96844 3.02373 -0.121001 
2.24525 3.75562 -0.111829 2.45588 4.46687 -0.105312 2.64789 5.21406 -0.0994134 
2.78415 5.92141 -0.095467 2.86458 6.56248 -0.0933258 2.9153 7.2249 -0.0920372 
2.94302 7.90448 -0.0913311 2.95185 8.58248 -0.091136 2.92861 9.22675 -0.0918694 
2.8946 9.92218 -0.0930592 2.85981 10.6122 -0.0946805 2.8158 11.2656 -0.0969613 
2.76613 11.9396 -0.0999936 2.70153 12.6372 -0.103902 2.65091 13.3338 -0.108208 
2.61768 13.9825 -0.112534 2.59229 14.6493 -0.117254 2.5738 15.3461 -0.12239 
2.56868 16.0438 -0.127627 2.57807 16.7572 -0.133003 2.60721 17.4697 -0.138283 
2.66699 18.1364 -0.142948 2.73401 18.7548 -0.147068 2.79301 19.4055 -0.151325 
2.84085 20.095 -0.155754 2.90094 20.7397 -0.15945 2.95404 21.3686 -0.162809 
3.01338 22.063 -0.166117 3.05621 22.7531 -0.169235 3.09827 23.4481 -0.172027 
3.14161 24.1096 -0.174341 3.18495 24.8049 -0.176557 3.21759 25.5132 -0.178779 
3.23886 26.2355 -0.181029 3.2537 26.9917 -0.183325 3.27278 27.759 -0.185515 
3.29434 28.4791 -0.187462 3.33258 29.2253 -0.189321 3.38301 29.939 -0.191018 
-0.642473 16.2649 -0.149235 -0.357088 8.86989 -0.166435 1.2927 1.65472 -0.14621 
1.01007 20.4505 -0.200704 -3.37911 28.4435 -0.251505 -3.31348 27.663 -0.248729 
-3.27534 26.8562 -0.246105 -3.25642 26.1133 -0.243736 -3.22966 25.3983 -0.241273 
-3.19461 24.6614 -0.238545 -3.13601 23.9657 -0.235647 -3.10469 23.2637 -0.232723 
-3.0651 22.5867 -0.229648 -2.99873 21.9258 -0.226207 -2.93692 21.2373 -0.222411 
-2.85901 20.5439 -0.218152 -2.79227 19.8302 -0.213538 -2.74176 19.1116 -0.208746 