# vtk DataFile Version 4.2
vtk output
ASCII
DATASET UNSTRUCTURED_GRID
POINTS 8918 float
-19.9817 -33.5857 2 -19.9817 -33.5857 0 -79.9817 -33.5857 2 
-79.9817 -33.5857 0 -19.9817 66.4143 2 -19.9817 66.4143 0 
-79.9817 66.4143 2 -79.9817 66.4143 0 -65.0198 31.4171 2 
-65.0198 31.4171 0 -50.0198 5.43637 2 -50.0198 5.43637 0 
-48.2878 6.43637 2 -48.2878 6.43637 0 -63.2878 32.4171 2 
-63.2878 32.4171 0 -22.0817 -33.5857 0 -24.3017 -33.5857 0 
-26.7617 -33.5857 0 -29.2817 -33.5857 0 -32.0417 -33.5857 0 
-34.6817 -33.5857 0 -37.4417 -33.5857 0 -40.2017 -33.5857 0 
-43.0217 -33.5857 0 -45.6617 -33.5857 0 -48.3617 -33.5857 0 
-50.8817 -33.5857 0 -54.0017 -33.5857 0 -56.6417 -33.5857 0 
-59.2817 -33.5857 0 -61.9217 -33.5857 0 -64.5617 -33.5857 0 
-67.2017 -33.5857 0 -69.8417 -33.5857 0 -72.6017 -33.5857 0 
-75.4817 -33.5857 0 -77.9417 -33.5857 0 -22.0817 -33.5857 2 
-24.4217 -33.5857 2 -26.5217 -33.5857 2 -28.7417 -33.5857 2 
-31.0217 -33.5857 2 -33.1217 -33.5857 2 -35.5217 -33.5857 2 
-37.5617 -33.5857 2 -39.8417 -33.5857 2 -42.3017 -33.5857 2 
-44.4017 -33.5857 2 -46.6817 -33.5857 2 -48.8417 -33.5857 2 
-50.9417 -33.5857 2 -53.0417 -33.5857 2 -55.2617 -33.5857 2 
-57.5417 -33.5857 2 -59.6417 -33.5857 2 -61.9817 -33.5857 2 
-64.0817 -33.5857 2 -66.3017 -33.5857 2 -68.5217 -33.5857 2 
-70.6817 -33.5857 2 -73.0817 -33.5857 2 -75.3017 -33.5857 2 
-77.5817 -33.5857 2 -77.5817 66.4143 2 -75.4817 66.4143 2 
-73.3217 66.4143 2 -71.1017 66.4143 2 -69.0617 66.4143 2 
-67.0217 66.4143 2 -64.8617 66.4143 2 -62.7017 66.4143 2 
-60.6017 66.4143 2 -58.5617 66.4143 2 -56.5217 66.4143 2 
-54.1817 66.4143 2 -52.2017 66.4143 2 -49.9817 66.4143 2 
-47.8217 66.4143 2 -45.7217 66.4143 2 -43.4417 66.4143 2 
-41.4617 66.4143 2 -39.2417 66.4143 2 -36.8417 66.4143 2 
-34.8017 66.4143 2 -32.5817 66.4143 2 -30.4817 66.4143 2 
-28.3217 66.4143 2 -26.2817 66.4143 2 -24.1817 66.4143 2 
-21.9617 66.4143 2 -79.9817 -31.2857 2 -79.9817 -28.9857 2 
-79.9817 -26.7857 2 -79.9817 -24.6857 2 -79.9817 -22.3857 2 
-79.9817 -20.1857 2 -79.9817 -17.8857 2 -79.9817 -15.7857 2 
-79.9817 -13.7857 2 -79.9817 -11.3857 2 -79.9817 -9.28569 2 
-79.9817 -7.18569 2 -79.9817 -5.08569 2 -79.9817 -2.88569 2 
-79.9817 -0.885687 2 -79.9817 1.21431 2 -79.9817 3.31431 2 
-79.9817 5.41431 2 -79.9817 7.51431 2 -79.9817 9.61431 2 
-79.9817 11.9143 2 -79.9817 14.0143 2 -79.9817 16.2143 2 
-79.9817 18.4143 2 -79.9817 20.6143 2 -79.9817 22.7143 2 
-79.9817 25.0143 2 -79.9817 27.1143 2 -79.9817 29.2143 2 
-79.9817 31.4143 2 -79.9817 33.6143 2 -79.9817 35.9143 2 
-79.9817 38.1143 2 -79.9817 40.5143 2 -79.9817 42.6143 2 
-79.9817 44.9143 2 -79.9817 47.0143 2 -79.9817 49.2143 2 
-79.9817 51.2143 2 -79.9817 53.5143 2 -79.9817 55.6143 2 
-79.9817 57.8143 2 -79.9817 60.0143 2 -79.9817 62.2143 2 
-79.9817 64.2143 2 -19.9817 64.1143 2 -19.9817 61.0143 2 
-19.9817 57.7143 2 -19.9817 53.8143 2 -19.9817 49.2143 2 
-19.9817 44.1143 2 -19.9817 38.9143 2 -19.9817 32.4143 2 
-19.9817 26.4143 2 -19.9817 19.8143 2 -19.9817 13.8143 2 
-19.9817 7.91431 2 -19.9817 2.21431 2 -19.9817 -4.28569 2 
-19.9817 -9.48569 2 -19.9817 -14.3857 2 -19.9817 -18.6857 2 
-19.9817 -22.6857 2 -19.9817 -25.7857 2 -19.9817 -28.5857 2 
-19.9817 -31.2857 2 -62.2078 30.5465 2 -60.9628 28.3901 2 
-59.8528 26.4675 2 -58.6978 24.467 2 -57.4828 22.3626 2 
-56.3878 20.466 2 -55.2328 18.4655 2 -54.0928 16.4909 2 
-52.9678 14.5424 2 -51.7678 12.4639 2 -50.5828 10.4114 2 
-49.4128 8.38493 2 -63.9848 29.6245 2 -62.9648 27.8578 2 
-61.8548 25.9352 2 -60.7598 24.0386 2 -59.6348 22.09 2 
-58.6148 20.3233 2 -57.5198 18.4268 2 -56.4098 16.5042 2 
-55.3898 14.7375 2 -54.3548 12.9448 2 -53.2898 11.1002 2 
-52.2998 9.38545 2 -51.2198 7.51483 2 -77.8217 66.4143 0 
-75.3017 66.4143 0 -72.6017 66.4143 0 -69.7817 66.4143 0 
-67.1417 66.4143 0 -64.3817 66.4143 0 -61.6217 66.4143 0 
-59.0417 66.4143 0 -56.6417 66.4143 0 -53.9417 66.4143 0 
-51.3017 66.4143 0 -48.4217 66.4143 0 -45.7217 66.4143 0 
-42.8417 66.4143 0 -40.3217 66.4143 0 -37.5617 66.4143 0 
-34.9217 66.4143 0 -32.1617 66.4143 0 -29.4617 66.4143 0 
-26.8217 66.4143 0 -24.3017 66.4143 0 -22.0217 66.4143 0 
-79.9817 -31.2857 0 -79.9817 -28.6857 0 -79.9817 -25.9857 0 
-79.9817 -23.3857 0 -79.9817 -20.5857 0 -79.9817 -17.7857 0 
-79.9817 -15.2857 0 -79.9817 -12.5857 0 -79.9817 -9.78569 0 
-79.9817 -7.28569 0 -79.9817 -4.68569 0 -79.9817 -1.98569 0 
-79.9817 0.714313 0 -79.9817 3.41431 0 -79.9817 6.01431 0 
-79.9817 8.71431 0 -79.9817 11.3143 0 -79.9817 14.1143 0 
-79.9817 16.8143 0 -79.9817 19.5143 0 -79.9817 22.1143 0 
-79.9817 24.9143 0 -79.9817 27.6143 0 -79.9817 30.2143 0 
-79.9817 33.0143 0 -79.9817 35.6143 0 -79.9817 38.5143 0 
-79.9817 41.0143 0 -79.9817 43.6143 0 -79.9817 46.2143 0 
-79.9817 48.7143 0 -79.9817 51.3143 0 -79.9817 54.0143 0 
-79.9817 56.7143 0 -79.9817 59.4143 0 -79.9817 61.9143 0 
-79.9817 64.3143 0 -19.9817 64.2143 0 -19.9817 61.9143 0 
-19.9817 58.9143 0 -19.9817 55.4143 0 -19.9817 51.6143 0 
-19.9817 47.3143 0 -19.9817 42.6143 0 -19.9817 36.7143 0 
-19.9817 29.7143 0 -19.9817 22.7143 0 -19.9817 16.5143 0 
-19.9817 10.9143 0 -19.9817 5.51431 0 -19.9817 0.0143129 0 
-19.9817 -5.58569 0 -19.9817 -10.8857 0 -19.9817 -15.5857 0 
-19.9817 -19.3857 0 -19.9817 -22.7857 0 -19.9817 -25.8857 0 
-19.9817 -28.6857 0 -19.9817 -31.2857 0 -62.2528 30.6245 0 
-61.1278 28.6759 0 -59.9578 26.6494 0 -58.8628 24.7528 0 
-57.8728 23.0381 0 -56.8528 21.2714 0 -55.8478 19.5307 0 
-54.7228 17.5821 0 -53.6278 15.6855 0 -52.5778 13.8669 0 
-51.4528 11.9183 0 -50.4478 10.1776 0 -49.3678 8.30699 0 
-63.9548 29.5725 0 -62.9198 27.7798 0 -61.7948 25.8313 0 
-60.7598 24.0386 0 -59.7398 22.2719 0 -58.6598 20.4013 0 
-57.6548 18.6606 0 -56.6498 16.9199 0 -55.5698 15.0493 0 
-54.3998 13.0228 0 -53.3198 11.1521 0 -52.3148 9.41143 0 
-51.1598 7.41091 0 -76.9715 64.603 2 -74.6761 64.5972 2 
-72.3296 64.5945 2 -70.2461 64.4742 2 -68.1025 64.4743 2 
-66.0235 64.4936 2 -63.8157 64.4571 2 -61.7174 64.4027 2 
-59.543 64.3514 2 -57.4606 64.3687 2 -55.3332 64.3632 2 
-53.2129 64.3491 2 -51.0937 64.3456 2 -48.8634 64.3636 2 
-46.7389 64.3935 2 -44.5249 64.4074 2 -42.4744 64.425 2 
-40.2692 64.4692 2 -38.0455 64.4851 2 -35.9104 64.4776 2 
-33.6876 64.4576 2 -31.5294 64.4533 2 -29.4156 64.4742 2 
-27.3464 64.4756 2 -25.3597 64.3887 2 -23.3803 64.3235 2 
-21.4461 64.755 2 -78.0584 -30.5157 2 -78.1357 -28.0985 2 
-78.0983 -25.8874 2 -78.0444 -23.6285 2 -77.9831 -21.4732 2 
-77.9534 -19.2273 2 -77.889 -16.9259 2 -77.8392 -14.7457 2 
-77.9467 -12.6796 2 -77.9492 -10.4642 2 -77.9143 -8.25489 2 
-77.9338 -6.14412 2 -77.9371 -4.05883 2 -77.9195 -1.93354 2 
-77.9181 0.0931238 2 -77.902 2.26384 2 -77.9293 4.30272 2 
-77.9825 6.44625 2 -77.9354 8.63267 2 -78.0026 10.862 2 
-77.9607 12.9365 2 -77.9914 15.1438 2 -78.0441 17.36 2 
-78.034 19.5132 2 -78.0128 21.6671 2 -78.0137 23.9084 2 
-78.0183 26.0511 2 -78.0441 28.1727 2 -78.056 30.3478 2 
-78.0737 32.5843 2 -77.942 34.7148 2 -77.8627 36.9771 2 
-77.9482 39.151 2 -77.9523 41.4781 2 -77.9436 43.6347 2 
-77.9429 45.8718 2 -77.9552 48.0166 2 -77.9422 50.2295 2 
-78.0177 52.4792 2 -78.0369 54.5999 2 -78.0854 56.7028 2 
-78.1431 58.936 2 -78.1713 61.0327 2 -78.2481 62.9884 2 
-22.4474 59.274 2 -22.7652 55.6527 2 -23.0825 51.354 2 
-23.3462 46.7435 2 -24.1078 41.5142 2 -25.1844 29.36 2 
-25.1094 22.955 2 -24.8866 16.9428 2 -24.7355 11.0119 2 
-24.6246 5.30272 2 -24.599 -0.145589 2 -24.5189 -5.90667 2 
-24.5403 -10.992 2 -24.4506 -15.5928 2 -24.313 -19.9203 2 
-22.7612 -27.5367 2 -21.9553 -30.2901 2 -23.5838 -31.7314 2 
-25.534 -31.7729 2 -27.5961 -31.7484 2 -29.8061 -31.6577 2 
-31.9702 -31.5529 2 -34.1726 -31.5269 2 -36.4848 -31.5302 2 
-38.7449 -31.5515 2 -41.0635 -31.5684 2 -43.2385 -31.5564 2 
-45.4765 -31.5719 2 -47.7237 -31.6063 2 -49.8341 -31.5902 2 
-52.0321 -31.5521 2 -54.1403 -31.5464 2 -56.3856 -31.5364 2 
-58.6221 -31.542 2 -60.8791 -31.5537 2 -63.0301 -31.5645 2 
-65.3042 -31.5675 2 -67.474 -31.6153 2 -69.6324 -31.6399 2 
-71.959 -31.6195 2 -74.256 -31.6431 2 -76.2406 -31.7624 2 
-60.9543 32.4961 2 -59.7984 30.414 2 -58.671 28.4943 2 
-57.4997 26.5395 2 -56.3614 24.5174 2 -55.1849 22.461 2 
-54.088 20.4345 2 -52.8602 18.5384 2 -51.6952 16.512 2 
-50.4888 14.3992 2 -49.2725 12.2959 2 -48.1389 10.1869 2 
-47.0097 7.97499 2 -48.2413 4.18388 2 -66.4563 29.9578 2 
-65.2339 27.9366 2 -64.1007 26.0372 2 -62.9595 24.0327 2 
-61.8542 22.1021 2 -60.8513 20.2979 2 -59.7346 18.3771 2 
-58.6329 16.5157 2 -57.598 14.6982 2 -56.5325 12.8194 2 
-55.5489 11.0159 2 -54.5189 9.15072 2 -53.3821 7.18051 2 
-52.2092 5.08134 2 -65.4939 33.7772 2 -22.0151 62.34 2 
-25.0101 35.579 2 -24.3791 -24.1704 2 -61.8529 34.2974 2 
-46.3223 5.56273 2 -50.6321 3.08881 2 -67.3089 32.2429 2 
-63.6925 35.3786 2 -73.6277 62.8237 2 -71.3377 62.6262 2 
-69.2907 62.5235 2 -67.2058 62.4557 2 -65.0023 62.3671 2 
-62.8228 62.3541 2 -60.6362 62.3277 2 -58.4792 62.219 2 
-56.3807 62.2601 2 -54.2324 62.2792 2 -52.1551 62.2695 2 
-49.9917 62.2397 2 -47.7798 62.2945 2 -45.589 62.2645 2 
-43.4863 62.3681 2 -41.4179 62.4087 2 -39.0808 62.3794 2 
-36.9595 62.3013 2 -34.8267 62.3348 2 -32.5386 62.3377 2 
-30.4454 62.4159 2 -28.3913 62.3998 2 -26.4764 62.4822 2 
-25.0592 57.5971 2 -76.4183 -27.0802 2 -76.0747 -24.9692 2 
-75.9092 -22.7261 2 -75.7728 -20.5607 2 -75.7106 -18.1806 2 
-75.6945 -15.8671 2 -75.7293 -13.7009 2 -75.7517 -11.6136 2 
-75.7751 -9.41802 2 -75.8199 -7.19221 2 -75.7531 -5.17235 2 
-75.7599 -3.10366 2 -75.8007 -1.02323 2 -75.8551 1.17837 2 
-75.836 3.23948 2 -75.8336 5.34434 2 -75.8233 7.57977 2 
-75.773 9.79173 2 -75.8187 11.9555 2 -75.8891 14.0319 2 
-75.9565 16.2655 2 -76.0111 18.3965 2 -75.988 20.635 2 
-75.954 22.8629 2 -75.9233 25.0922 2 -75.9157 27.2111 2 
-76.1267 29.2512 2 -76.2476 31.4049 2 -75.9086 33.6305 2 
-75.6829 35.7104 2 -75.8081 37.9967 2 -75.8675 40.257 2 
-75.8468 42.4371 2 -75.8202 44.687 2 -75.8012 46.8659 2 
-75.7669 49.092 2 -75.779 51.391 2 -75.8794 53.5988 2 
-76.0565 55.647 2 -76.1761 57.8977 2 -76.3335 60.0662 2 
-76.1436 62.5214 2 -75.8015 -29.3581 2 -25.6978 53.5603 2 
[...]
POINT_DATA 8918
FIELD FieldData 19
Displacement 3 8918 double
0 0 0 0 0 0 0 0 0 
0 0 0 -3.66477 32.5717 -0.137242 -3.66303 32.5733 0.129404 
4.43244 31.6104 -0.204967 4.43575 31.6128 0.0617657 2.99419 19.483 -0.141943 
2.99185 19.4376 -0.0392689 -0.379714 13.6904 -0.142726 -0.375468 13.6796 0.0270403 
-0.370452 13.5484 -0.111416 -0.386749 13.5398 -0.0106857 3.00204 19.3093 -0.171641 
2.97412 19.3326 0.0212565 0 0 0 0 0 0 
0 0 0 0 0 0 0 0 0 
0 0 0 0 0 0 0 0 0 
0 0 0 0 0 0 0 0 0 
0 0 0 0 0 0 0 0 0 
0 0 0 0 0 0 0 0 0 
0 0 0 0 0 0 0 0 0 
0 0 0 0 0 0 0 0 0 
0 0 0 0 0 0 0 0 0 
0 0 0 0 0 0 0 0 0 
0 0 0 0 0 0 0 0 0 
0 0 0 0 0 0 0 0 0 
0 0 0 0 0 0 0 0 0 
0 0 0 0 0 0 0 0 0 
0 0 0 0 0 0 0 0 0 
0 0 0 0 0 0 0 0 0 
0 0 0 4.11269 31.6456 -0.201049 3.8329 31.6751 -0.197553 
3.544 31.7033 -0.193838 3.24495 31.7306 -0.189894 2.9677 31.7549 -0.186301 
2.6881 31.7797 -0.182859 2.38976 31.8072 -0.179411 2.08971 31.8369 -0.176175 
1.79707 31.8685 -0.17335 1.51272 31.9018 -0.170939 1.22894 31.9375 -0.168706 
0.904893 31.9811 -0.166405 0.632409 32.0196 -0.164616 0.328992 32.0639 -0.162769 
0.0359975 32.1073 -0.161048 -0.246828 32.1491 -0.159414 -0.551915 32.1936 -0.15764 
-0.815492 32.2311 -0.156101 -1.10989 32.2715 -0.154297 -1.42733 32.3133 -0.152266 
-1.69685 32.3471 -0.150517 -1.99023 32.3826 -0.148564 -2.26808 32.4149 -0.146686 
-2.5544 32.4474 -0.144716 -2.82537 32.4777 -0.14285 -3.10486 32.5088 -0.140947 
-3.40075 32.5419 -0.138974 1.07845 1.23136 -0.0892843 1.74872 2.06161 -0.0737616 
2.2224 2.78114 -0.0796662 2.57886 3.42675 -0.0896261 2.89418 4.11135 -0.100004 
3.13734 4.75454 -0.110038 3.34266 5.42108 -0.11968 3.4936 6.02834 -0.12795 
3.6097 6.60731 -0.1356 3.71878 7.30495 -0.144434 3.79117 7.91911 -0.151827 
3.84523 8.53759 -0.15895 3.88379 9.16098 -0.165775 3.91047 9.82013 -0.17258 
3.92508 10.4251 -0.178558 3.93319 11.0665 -0.184583 3.93673 11.7145 -0.190305 
3.9385 12.369 -0.195781 3.94148 13.0296 -0.200937 3.94848 13.6957 -0.205741 
3.96381 14.4302 -0.210545 3.98735 15.1042 -0.214441 4.02367 15.812 -0.218264 
4.07374 16.5199 -0.221545 4.13852 17.2259 -0.224264 4.21422 17.8957 -0.226221 
4.31152 18.6217 -0.227374 4.41014 19.2749 -0.22769 4.51301 19.9166 -0.226986 
4.61685 20.5752 -0.225589 4.70678 21.2221 -0.224172 4.77676 21.8921 -0.223366 
4.81747 22.534 -0.222462 4.83294 23.2429 -0.222268 4.82607 23.8747 -0.222291 
4.80261 24.5807 -0.222135 4.77147 25.2376 -0.221636 4.73292 25.937 -0.220706 
4.6952 26.5812 -0.219535 4.65066 27.33 -0.218075 4.61049 28.0196 -0.216426 
4.56989 28.7467 -0.214476 4.53148 29.4772 -0.212256 4.49555 30.2099 -0.209887 
4.46495 30.8769 -0.207559 -3.63004 31.8051 -0.139054 -3.58268 30.7714 -0.141559 
-3.53195 29.6699 -0.144258 -3.47293 28.3659 -0.147387 -3.40687 26.8242 -0.15093 
-3.34206 25.1094 -0.154474 -3.29125 23.354 -0.157429 -3.26252 21.1508 -0.159945 
-3.28539 19.1149 -0.160373 -3.37766 16.8915 -0.157464 -3.51626 14.91 -0.151735 
-3.67324 13.0218 -0.144034 -3.79742 11.2634 -0.135487 -3.84317 9.32662 -0.12583 
-3.76644 7.81321 -0.119613 -3.57253 6.40361 -0.116262 -3.27581 5.16959 -0.11651 
-2.85654 4.00964 -0.121835 -2.39727 3.07055 -0.134523 -1.83818 2.17128 -0.164001 
-1.05529 1.17997 -0.245418 2.86078 18.9473 -0.131881 2.5896 18.4717 -0.127247 
2.32423 18.0333 -0.125073 2.04931 17.5666 -0.12404 1.76167 17.0681 -0.1231 
1.50237 16.6142 -0.119215 1.23199 16.1337 -0.117176 0.963558 15.6604 -0.114122 
0.697837 15.1986 -0.112709 0.408723 14.7142 -0.108149 0.118482 14.2598 -0.0991608 
-0.155099 13.8631 -0.0910792 2.79352 19.1789 -0.116601 2.55844 18.8449 -0.122054 
2.29183 18.4342 -0.124827 2.03268 18.005 -0.1227 1.76581 17.5499 -0.121989 
1.52392 17.1297 -0.122502 1.26921 16.6767 -0.118548 1.00771 16.2151 -0.116508 
0.764348 15.7905 -0.115978 0.5179 15.3662 -0.110683 0.256634 14.9314 -0.110104 
0.0175291 14.5351 -0.108392 -0.220479 14.1135 -0.103145 4.14799 31.6445 0.0653016 
3.81206 31.6799 0.0693251 3.45043 31.7146 0.07318 3.06887 31.7486 0.0768916 
2.70752 31.7804 0.0802059 2.32599 31.8157 0.0836467 1.94188 31.8549 0.0870797 
1.58202 31.8958 0.0903367 1.24795 31.9374 0.0933617 0.873992 31.9877 0.0967674 
0.511193 32.0394 0.100037 0.11915 32.0971 0.103474 -0.244929 32.151 0.106527 
-0.630087 32.2069 0.109568 -0.965 32.2538 0.112093 -1.33038 32.3027 0.114684 
-1.67927 32.3469 0.117023 -2.04405 32.3908 0.119348 -2.40148 32.4319 0.121547 
-2.75186 32.4712 0.123671 -3.08715 32.5085 0.125727 -3.39101 32.5425 0.12764 
1.05856 1.18155 0.269773 1.81839 2.15091 0.194861 2.35962 3.01716 0.162418 
2.75984 3.80527 0.141792 3.0929 4.62883 0.124891 3.34805 5.44197 0.11129 
3.52303 6.16563 0.101502 3.66683 6.94908 0.0924601 3.77517 7.76653 0.0842694 
3.84301 8.50246 0.0778819 3.89012 9.27528 0.0719183 3.91891 10.0869 0.0665986 
3.93302 10.9088 0.0619115 3.93841 11.7415 0.0576701 3.94102 12.5534 0.0539708 
3.94706 13.4061 0.0502376 3.9614 14.2348 0.0466629 3.99149 15.1331 0.0425924 
4.03904 16.0021 0.0384092 4.10765 16.8704 0.0338709 4.19483 17.7021 0.0291613 
4.31069 18.5881 0.0236739 4.43836 19.4271 0.0182563 4.56518 20.2165 0.0133362 
4.68811 21.0466 0.00978762 4.7736 21.8057 0.00924835 4.82607 22.6528 0.0124056 
4.83678 23.3943 0.0171814 4.82149 24.1822 0.0230131 4.78801 24.9885 0.0289975 
4.74573 25.7796 0.0345262 4.69675 26.616 0.0397542 4.64452 27.4962 0.0445804 
4.59339 28.3851 0.04899 4.54505 29.2802 0.0530054 4.50356 30.1123 0.0564089 
4.46668 30.9125 0.0593265 -3.62982 31.8399 0.127691 -3.59475 31.0731 0.125961 
-3.54864 30.0721 0.123807 -3.49518 28.9026 0.121419 -3.43894 27.6305 0.118998 
-3.37965 26.1873 0.116571 -3.32367 24.6048 0.11446 -3.2745 22.6099 0.112726 
-3.26427 20.2344 0.111386 -3.32655 17.8643 0.110614 -3.447 15.7944 0.109722 
-3.59201 13.9723 0.108178 -3.73051 12.2722 0.106763 -3.82635 10.5993 0.106958 
-3.83377 8.94453 0.109232 -3.72387 7.40853 0.111548 -3.50343 6.05985 0.112522 
-3.21542 4.97023 0.111891 -2.8442 3.98075 0.113873 -2.38656 3.05478 0.107437 
-1.82597 2.16309 0.101702 -1.0734 1.23915 0.123018 2.87258 18.9566 -0.0234602 
2.6314 18.5309 -0.0199992 2.35339 18.0722 -0.0139221 2.08943 17.6312 -0.010615 
1.85399 17.2265 -0.00714201 1.61524 16.8062 -0.00190689 1.37763 16.3881 -0.00133092 
1.11371 15.9204 0.00149533 0.854985 15.4667 0.00254722 0.605937 15.0395 0.00578931 
0.335674 14.5903 0.00574087 0.0928598 14.2071 0.00161384 -0.160827 13.8491 -0.0108482 
2.78629 19.1657 -0.0465761 2.54783 18.8291 -0.0257846 2.2799 18.4107 -0.0165977 
2.03154 18.0032 -0.0106621 1.79083 17.5904 -0.00700388 1.53845 17.1471 -0.00442429 
1.30046 16.7304 0.000142982 1.0656 16.3133 0.00059978 0.810135 15.8652 0.00201499 
0.528492 15.3813 0.00473234 0.270267 14.9448 0.00204543 0.0241514 14.5431 0.00577313 
-0.238756 14.0998 0.00473939 4.05759 31.0506 -0.201957 3.75053 31.0797 -0.19802 
3.43492 31.108 -0.193973 3.15448 31.0922 -0.190524 2.8622 31.117 -0.186934 
2.57667 31.1485 -0.183588 2.27273 31.1648 -0.180275 1.98323 31.1763 -0.1774 
1.68283 31.1931 -0.174655 1.39434 31.2345 -0.17219 1.10076 31.2717 -0.169886 
0.809492 31.3081 -0.167775 0.519685 31.3494 -0.165804 0.216037 31.4009 -0.163822 
-0.0717648 31.4542 -0.161994 -0.369735 31.5032 -0.160136 -0.644487 31.549 -0.158441 
-0.939272 31.6051 -0.156574 -1.23514 31.6501 -0.154693 -1.51833 31.6841 -0.152868 
-1.81274 31.7136 -0.150957 -2.09886 31.7459 -0.149065 -2.3797 31.7849 -0.14717 
-2.65462 31.816 -0.145319 -2.91756 31.8163 -0.143613 -3.18015 31.8238 -0.141906 
-3.44449 31.9965 -0.139846 1.05589 1.09704 -0.11652 1.70092 2.01489 -0.102005 
2.1415 2.76582 -0.104026 2.49326 3.49329 -0.110022 2.75992 4.16436 -0.117022 
2.9869 4.85338 -0.124479 3.16775 5.54858 -0.132121 3.30363 6.2045 -0.139159 
3.42302 6.83251 -0.145296 3.51174 7.49919 -0.152136 3.57316 8.16405 -0.158757 
3.62037 8.80315 -0.164797 3.6508 9.43682 -0.170568 3.66735 10.0857 -0.176226 
3.67641 10.7084 -0.181392 3.67799 11.3793 -0.186621 3.68166 12.0136 -0.191315 
3.68845 12.6846 -0.195987 3.68569 13.3719 -0.200357 3.70392 14.0766 -0.204591 
3.71613 14.7333 -0.20802 3.75003 15.4337 -0.211526 3.8005 16.1374 -0.214752 
3.85621 16.8183 -0.217387 3.92552 17.4961 -0.219609 4.01605 18.1977 -0.221513 
4.11579 18.8627 -0.222815 4.22509 19.5155 -0.223706 4.33601 20.1767 -0.224023 
4.44064 20.8494 -0.223859 4.50314 21.4819 -0.223482 4.54899 22.1573 -0.222864 
4.58418 22.8147 -0.222107 4.58485 23.5255 -0.221299 4.5651 24.1939 -0.220501 
4.53271 24.8974 -0.219497 4.49582 25.5805 -0.21832 4.45048 26.2935 -0.216901 
4.41451 27.024 -0.215411 4.37424 27.7184 -0.213741 4.33958 28.4105 -0.212001 
4.30597 29.1487 -0.209964 4.27355 29.8446 -0.20786 4.25238 30.4942 -0.205908 
-3.22674 30.1536 -0.145104 -3.12847 28.9401 -0.148222 -3.02176 27.4993 -0.151704 
-2.92266 25.9538 -0.155066 -2.75953 24.1958 -0.15858 -2.56673 20.1283 -0.162303 
-2.63871 17.9984 -0.161043 -2.79263 16.0156 -0.157698 -2.98053 14.0894 -0.152659 
-3.15762 12.2718 -0.146673 -3.26653 10.5686 -0.140214 -3.28722 8.78858 -0.133565 
-3.17661 7.21968 -0.12932 -2.96785 5.79559 -0.127602 -2.63754 4.44035 -0.129753 
-1.69206 2.07134 -0.154631 -1.08661 1.15611 -0.199181 -0.504449 0.545135 -0.187944 
-0.417574 0.484339 -0.168302 -0.366776 0.469577 -0.160223 -0.336863 0.479888 -0.167656 
-0.29738 0.50157 -0.180491 -0.252381 0.506341 -0.182149 -0.202284 0.499985 -0.171812 
-0.174909 0.507474 -0.163395 -0.146333 0.490492 -0.169615 -0.104466 0.493922 -0.180337 
-0.0640421 0.491048 -0.178703 -0.0221158 0.479917 -0.170558 0.000263969 0.496985 -0.164963 
0.0193758 0.495544 -0.176284 0.0611385 0.497865 -0.181542 0.099809 0.50111 -0.185524 
0.138357 0.498581 -0.187758 0.177004 0.498119 -0.181525 0.194979 0.499099 -0.185379 
0.237409 0.49438 -0.184567 0.275997 0.486166 -0.183204 0.320463 0.48446 -0.181732 
0.3891 0.497773 -0.167134 0.450403 0.523653 -0.158372 0.502804 0.508569 -0.146238 
2.44127 19.9683 -0.21706 2.34981 19.3698 -0.191342 2.16388 18.8548 -0.182547 
1.93392 18.3483 -0.178546 1.69229 17.8244 -0.175484 1.4359 17.2979 -0.17254 
1.19024 16.7778 -0.169646 0.932113 16.306 -0.167292 0.675217 15.7942 -0.164767 
0.409094 15.2636 -0.161507 0.145657 14.7398 -0.157885 -0.0962125 14.2146 -0.154232 
-0.331069 13.5991 -0.156332 -0.508631 12.7408 -0.240917 2.96992 19.4505 -0.191777 
2.74007 18.8764 -0.180223 2.51144 18.4148 -0.176472 2.26597 17.9268 -0.176252 
2.02099 17.4552 -0.17566 1.79612 17.005 -0.174831 1.55107 16.5221 -0.17269 
1.31119 16.052 -0.170266 1.08295 15.5871 -0.168853 0.849946 15.1017 -0.167344 
0.635599 14.6253 -0.164371 0.431074 14.1182 -0.162967 0.251484 13.568 -0.172681 
0.172906 12.9466 -0.202518 3.16908 20.3641 -0.269223 -3.33179 31.1828 -0.142277 
-2.59349 22.205 -0.161388 -2.10385 3.05366 -0.140106 2.46 20.5236 -0.239936 
-0.62409 12.8382 -0.187829 0.0142413 12.3452 -0.222278 3.26548 20.1914 -0.224687 
2.77017 20.8699 -0.243677 3.63656 30.5014 -0.198059 3.3305 30.4621 -0.194376 
3.05391 30.4506 -0.19108 2.76991 30.4514 -0.187806 2.46844 30.4482 -0.184528 
2.16797 30.4728 -0.181392 1.86617 30.4964 -0.178452 1.56982 30.4954 -0.175878 
1.27973 30.5469 -0.173379 0.984098 30.5945 -0.171021 0.699915 30.633 -0.168916 
0.405702 30.6677 -0.166865 0.105046 30.7319 -0.164783 -0.189856 30.7669 -0.162861 
-0.473855 30.8436 -0.16094 -0.751193 30.8971 -0.159134 -1.06237 30.9305 -0.157148 
-1.34338 30.9417 -0.15538 -1.62739 30.9884 -0.153511 -1.93141 31.0258 -0.151517 
-2.21074 31.0838 -0.149627 -2.48354 31.109 -0.147836 -2.73958 31.1645 -0.146086 
-2.8523 29.5564 -0.148639 1.69836 2.15656 -0.117668 2.04035 2.84106 -0.122118 
2.34778 3.56685 -0.126661 2.58609 4.25579 -0.132 2.80275 5.00844 -0.137656 
2.97271 5.73453 -0.143279 3.10349 6.41154 -0.148617 3.20155 7.05981 -0.153833 
3.28071 7.73961 -0.159363 3.34221 8.42836 -0.164762 3.36909 9.05077 -0.169654 
3.39307 9.6911 -0.174458 3.41088 10.3368 -0.179082 3.42288 11.0218 -0.183755 
3.42062 11.6641 -0.187797 3.41879 12.3222 -0.191671 3.41754 13.0227 -0.195545 
3.41633 13.7168 -0.198997 3.43533 14.3971 -0.202226 3.46689 15.0501 -0.205119 
3.51274 15.7516 -0.208027 3.56927 16.4193 -0.210644 3.63427 17.1164 -0.212945 
3.71396 17.8067 -0.215043 3.8095 18.494 -0.217041 3.91438 19.1445 -0.218956 
4.04695 19.7746 -0.220935 4.1701 20.4318 -0.222383 4.22583 21.0921 -0.222857 
4.26393 21.7144 -0.222893 4.31712 22.4163 -0.222192 4.33219 23.1174 -0.220954 
4.31516 23.8015 -0.219523 4.28115 24.5169 -0.217932 4.23963 25.2176 -0.216312 
4.19017 25.9397 -0.214544 4.1432 26.6907 -0.212665 4.10991 27.415 -0.210916 
4.0915 28.0886 -0.209409 4.06361 28.8319 -0.207481 4.04517 29.5494 -0.205597 
3.97878 30.3686 -0.202707 1.11699 1.31069 -0.12869 -2.70529 28.2012 -0.152203 
-2.5372 26.7231 -0.155869 -2.42252 25.2936 -0.158789 3.28859 19.8307 -0.21109 
-0.697145 11.9445 -0.193986 -2.08919 16.8963 -0.161883 -2.28693 15.0012 -0.158847 
-2.51365 13.2312 -0.155161 -2.66622 11.5067 -0.150795 -2.73747 9.82612 -0.145914 
-2.68448 8.09536 -0.141616 -2.52742 6.52958 -0.139312 -2.31036 5.13165 -0.139057 
-1.88398 21.0572 -0.164917 2.12155 20.9157 -0.214772 -0.324504 11.557 -0.203006 
-0.786753 1.02056 -0.159146 -0.756894 1.09564 -0.160213 -0.665035 1.09276 -0.162158 
-0.577063 1.11128 -0.165909 -0.501897 1.1402 -0.164867 -0.4076 1.12031 -0.163291 
-0.324081 1.10902 -0.163934 -0.249216 1.0916 -0.16557 -0.176715 1.09018 -0.169179 
-0.101473 1.08854 -0.167274 -0.0344472 1.08027 -0.167843 0.0282042 1.08178 -0.169236 
0.0930171 1.0707 -0.171454 0.165821 1.09326 -0.176325 0.23814 1.09717 -0.177963 
0.314315 1.0948 -0.177752 0.385792 1.09133 -0.177532 0.46728 1.09668 -0.175181 
0.544258 1.0769 -0.172614 0.626165 1.07378 -0.168219 0.708128 1.05873 -0.160759 
0.866451 1.13717 -0.147244 1.92459 19.6917 -0.188891 2.03513 20.3036 -0.201324 
1.5429 18.6334 -0.177354 1.31684 18.0623 -0.173596 1.10092 17.4907 -0.17031 
0.869255 16.9731 -0.167673 0.614063 16.4598 -0.165242 0.366823 15.9045 -0.162521 
0.113942 15.2895 -0.159481 -0.125286 14.682 -0.157788 -0.371089 13.9936 -0.160682 
-0.634944 13.1923 -0.172277 -2.99811 30.8654 -0.145058 0.456266 11.8399 -0.200015 
2.73673 18.4725 -0.185805 2.50005 17.9107 -0.181043 2.27799 17.3848 -0.178893 
2.06291 16.8877 -0.176848 1.8405 16.3899 -0.175073 1.61272 15.8994 -0.173109 
1.40148 15.4017 -0.171458 1.19499 14.8991 -0.17006 0.997466 14.3778 -0.169249 
0.823555 13.8279 -0.170082 0.685845 13.2154 -0.175371 0.585324 12.5282 -0.188115 
-1.99229 23.7214 -0.163041 -1.98158 3.80887 -0.141877 -1.91838 19.0283 -0.164263 
-1.03631 1.22873 -0.168638 1.74699 19.1524 -0.18168 3.00135 19.1042 -0.196689 
3.39222 21.0229 -0.230933 3.53901 20.632 -0.223114 -1.34794 1.88149 -0.151651 
-0.870223 12.3314 -0.181862 2.32839 21.5212 -0.22025 -1.50451 2.63394 -0.148814 
3.10209 21.5355 -0.230581 0.195347 11.0936 -0.194383 3.24899 29.7633 -0.195209 
2.97613 29.7386 -0.192111 2.67557 29.7261 -0.188799 2.36981 29.7055 -0.185647 
2.05946 29.6929 -0.182627 1.74761 29.7191 -0.179686 1.4651 29.7531 -0.177157 
1.16987 29.8083 -0.174616 0.874073 29.8506 -0.172262 0.578284 29.8599 -0.170099 
0.28925 29.8921 -0.168016 -0.0169104 29.9505 -0.165837 -0.292153 30.0265 -0.163866 
-0.581006 30.1418 -0.161766 -0.877384 30.1599 -0.159847 -1.16924 30.1279 -0.158064 
-1.44717 30.1733 -0.156221 -1.75798 30.216 -0.154176 -2.05174 30.2903 -0.152179 
-2.32571 30.4422 -0.150153 3.53203 29.8188 -0.198484 -0.70971 13.7381 -0.166437 
3.80641 29.888 -0.201734 1.90047 2.94065 -0.137437 2.17547 3.68227 -0.140693 
2.39378 4.42111 -0.144646 2.59809 5.21037 -0.148661 2.75719 5.96323 -0.152856 
2.87201 6.63926 -0.156833 2.97331 7.32163 -0.160964 3.03532 7.99813 -0.165396 
3.07056 8.66351 -0.169747 3.10207 9.30448 -0.173708 3.13107 9.96393 -0.177646 
3.13855 10.6222 -0.181441 3.14138 11.3149 -0.185117 3.1405 11.9569 -0.188242 
3.13734 12.6429 -0.191332 3.13122 13.3673 -0.194271 3.14285 14.0466 -0.196863 
3.16752 14.7094 -0.199221 3.21002 15.3656 -0.201521 3.27614 16.0644 -0.204081 
3.3358 16.7532 -0.206187 3.40641 17.4108 -0.208164 3.49741 18.1201 -0.210442 
3.59541 18.8004 -0.212835 3.72013 19.4868 -0.216054 3.89137 20.0575 -0.219441 
3.96489 20.6329 -0.221432 3.90689 21.1393 -0.222697 4.01186 21.9305 -0.22276 
4.06909 22.6958 -0.221184 4.0672 23.401 -0.219167 4.01944 24.0801 -0.216987 
3.96 24.8155 -0.214641 3.89537 25.5625 -0.212311 3.84377 26.3319 -0.210093 
3.82158 27.1083 -0.208149 3.80772 27.8003 -0.206506 3.78668 28.5447 -0.204625 
3.79052 29.2487 -0.203067 3.01714 18.5851 -0.197821 3.35288 19.2429 -0.20855 
-2.43903 28.9231 -0.152427 -2.23005 27.5539 -0.156254 -1.98342 25.8346 -0.160537 
1.47987 2.04129 -0.135145 1.89039 21.9971 -0.205589 -1.86873 14.0753 -0.160966 
-1.26996 22.1415 -0.168025 -2.16626 9.02619 -0.15278 -2.06362 7.31431 -0.149734 
-1.91174 5.76894 -0.148032 -0.970025 11.3333 -0.179587 0.866401 11.5147 -0.18962 
1.51643 19.9561 -0.186632 -0.618007 10.8402 -0.18623 -2.07629 12.3837 -0.158819 
-1.06579 1.70551 -0.154618 -0.963312 1.78421 -0.157478 -0.828425 1.80871 -0.159685 
-0.710388 1.84685 -0.160549 -0.568162 1.82252 -0.16177 -0.434063 1.77372 -0.163347 
-0.322694 1.76059 -0.165221 -0.214793 1.77791 -0.166626 -0.109253 1.76925 -0.167391 
-0.00739998 1.71702 -0.168689 0.0907815 1.70685 -0.170671 0.198767 1.76135 -0.173328 
0.310348 1.79404 -0.175183 0.427935 1.80081 -0.17634 0.545033 1.79042 -0.17594 
0.670093 1.80118 -0.174118 0.789589 1.78728 -0.170793 0.90979 1.75296 -0.165452 
1.01187 1.70338 -0.158845 1.10743 1.64076 -0.14949 0.778197 17.6733 -0.170414 
1.14871 18.8616 -0.177058 0.511092 17.2528 -0.16833 0.278424 16.6117 -0.165657 
0.0593718 15.9405 -0.163033 -0.198465 15.2443 -0.161518 -0.450875 14.5761 -0.16225 
-0.969127 12.8554 -0.171872 0.674625 10.7025 -0.18975 2.66381 22.2169 -0.218603 
2.55865 17.3549 -0.186342 2.35215 16.792 -0.183382 2.13961 16.2637 -0.180785 
1.93314 15.7555 -0.178584 1.73194 15.2264 -0.176799 1.5375 14.7295 -0.175338 
1.35807 14.1985 -0.17463 1.1987 13.6284 -0.17532 1.08683 12.9761 -0.178442 
0.990211 12.2461 -0.184282 -1.72078 4.41014 -0.148018 1.32593 19.4476 -0.181343 
-1.60162 15.7801 -0.162686 -2.18035 10.7919 -0.156199 0.944333 18.2586 -0.173434 
3.67936 21.473 -0.224723 -0.148906 10.3087 -0.186266 2.75532 17.948 -0.18994 
-2.60106 30.226 -0.148849 1.75315 21.2566 -0.201701 -1.39596 17.6792 -0.16507 
-1.16656 19.9413 -0.167902 2.15639 22.7558 -0.207243 -1.19604 11.8982 -0.173883 
3.41553 21.969 -0.224577 1.66372 20.5569 -0.194105 0.382472 9.85575 -0.185529 
-1.30371 24.7587 -0.166133 3.63622 20.1377 -0.217617 2.91046 28.8997 -0.193586 
2.60308 28.8864 -0.190312 2.27306 28.8259 -0.187139 1.96777 28.7243 -0.184478 
1.656 28.7589 -0.181567 1.36537 28.8779 -0.178751 1.05893 28.9531 -0.176065 
0.765212 28.9884 -0.173697 0.463098 29.0262 -0.171349 0.160363 29.038 -0.169146 
-0.140746 29.126 -0.166863 -0.422257 29.2321 -0.164725 -0.697124 29.4392 -0.162475 
-0.974347 29.2524 -0.161046 -1.27161 29.2448 -0.159137 -1.57221 29.4625 -0.156802 
-1.87413 29.3331 -0.155139 -2.23489 29.5808 -0.152408 -1.51966 8.30978 -0.160702 
-1.67404 26.9814 -0.160651 2.71 16.7651 -0.191982 1.75646 3.11042 -0.149668 
1.99168 3.86158 -0.151906 2.19211 4.63809 -0.154638 2.37185 5.45958 -0.157733 
2.51332 6.25128 -0.161019 2.62247 6.95361 -0.164045 2.75014 7.60112 -0.166497 
2.73724 8.22124 -0.170451 2.77691 8.89502 -0.173795 2.80846 9.56972 -0.177031 
2.8384 10.2343 -0.180091 2.85029 10.9269 -0.183064 2.84093 11.5697 -0.185541 
2.83399 12.2807 -0.187972 2.83038 13.0086 -0.190176 2.83317 13.7244 -0.192126 
2.84327 14.3959 -0.19372 2.88437 15.0413 -0.195365 2.96349 15.707 -0.197536 
3.02715 16.4155 -0.199316 3.09119 17.0755 -0.200917 3.18775 17.711 -0.203059 
3.28475 18.4419 -0.205587 3.82928 22.9806 -0.219488 3.73975 23.6131 -0.216551 
3.66453 24.3349 -0.213563 3.59118 25.1267 -0.210566 3.50854 25.9327 -0.207626 
3.47728 26.7544 -0.205214 3.48931 27.5294 -0.203447 3.4899 28.3292 -0.20158 
1.31176 20.7259 -0.188924 1.44945 2.3292 -0.148494 1.67199 23.14 -0.197719 
-1.10956 13.5377 -0.166475 0.118421 17.5287 -0.168714 -0.614903 21.2143 -0.171837 
1.39314 12.0847 -0.183171 -1.42633 6.43929 -0.157114 -0.948601 10.1653 -0.175688 
-1.5758 13.1118 -0.163764 -2.00231 28.4591 -0.156 1.14216 10.4834 -0.185886 