# vtk DataFile Version 4.2
vtk output
ASCII
DATASET UNSTRUCTURED_GRID
POINTS 12526 float
-17.9106 -40.6492 2 -17.9106 -40.6492 0 -77.9106 -40.6492 2 
-77.9106 -40.6492 0 -17.9106 59.3508 2 -17.9106 59.3508 0 
-77.9106 59.3508 2 -77.9106 59.3508 0 -62.9116 8.35126 2 
-62.9116 8.35126 0 -32.9116 8.35126 2 -32.9116 8.35126 0 
-32.9116 10.3513 2 -32.9116 10.3513 0 -62.9116 10.3513 2 
-62.9116 10.3513 0 -20.0106 -40.6492 0 -22.2906 -40.6492 0 
-24.4506 -40.6492 0 -26.7306 -40.6492 0 -28.7706 -40.6492 0 
-31.0506 -40.6492 0 -33.0906 -40.6492 0 -35.1906 -40.6492 0 
-37.2306 -40.6492 0 -39.3906 -40.6492 0 -41.7306 -40.6492 0 
-43.9506 -40.6492 0 -46.0506 -40.6492 0 -48.2706 -40.6492 0 
-50.3706 -40.6492 0 -52.4706 -40.6492 0 -54.5106 -40.6492 0 
-56.6106 -40.6492 0 -58.7106 -40.6492 0 -60.9306 -40.6492 0 
-63.0306 -40.6492 0 -65.1306 -40.6492 0 -67.1706 -40.6492 0 
-69.2106 -40.6492 0 -71.3706 -40.6492 0 -73.7106 -40.6492 0 
-75.8106 -40.6492 0 -20.0106 -40.6492 2 -22.3506 -40.6492 2 
-24.4506 -40.6492 2 -26.6706 -40.6492 2 -28.9506 -40.6492 2 
-31.0506 -40.6492 2 -33.4506 -40.6492 2 -35.4906 -40.6492 2 
-37.7706 -40.6492 2 -40.2306 -40.6492 2 -42.3306 -40.6492 2 
-44.6106 -40.6492 2 -46.7706 -40.6492 2 -48.8706 -40.6492 2 
-50.9706 -40.6492 2 -53.1906 -40.6492 2 -55.4706 -40.6492 2 
-57.5706 -40.6492 2 -59.9106 -40.6492 2 -62.0106 -40.6492 2 
-64.2306 -40.6492 2 -66.4506 -40.6492 2 -68.6106 -40.6492 2 
-71.0106 -40.6492 2 -73.2306 -40.6492 2 -75.5106 -40.6492 2 
-75.5106 59.3508 2 -73.4106 59.3508 2 -71.2506 59.3508 2 
-69.0306 59.3508 2 -66.9906 59.3508 2 -64.9506 59.3508 2 
-62.7906 59.3508 2 -60.6306 59.3508 2 -58.5306 59.3508 2 
-56.4906 59.3508 2 -54.4506 59.3508 2 -52.1106 59.3508 2 
-50.1306 59.3508 2 -47.9106 59.3508 2 -45.7506 59.3508 2 
-43.6506 59.3508 2 -41.3706 59.3508 2 -39.3906 59.3508 2 
-37.1706 59.3508 2 -34.7706 59.3508 2 -32.7306 59.3508 2 
-30.5106 59.3508 2 -28.4106 59.3508 2 -26.2506 59.3508 2 
-24.2106 59.3508 2 -22.1106 59.3508 2 -19.8906 59.3508 2 
-77.9106 -38.3492 2 -77.9106 -36.0492 2 -77.9106 -33.8492 2 
-77.9106 -31.6492 2 -77.9106 -29.4492 2 -77.9106 -27.2492 2 
-77.9106 -24.9492 2 -77.9106 -22.8492 2 -77.9106 -20.7492 2 
-77.9106 -18.3492 2 -77.9106 -16.2492 2 -77.9106 -14.1492 2 
-77.9106 -12.0492 2 -77.9106 -9.84918 2 -77.9106 -7.74919 2 
-77.9106 -5.34918 2 -77.9106 -3.14918 2 -77.9106 -0.849185 2 
-77.9106 1.15081 2 -77.9106 3.45081 2 -77.9106 5.45081 2 
-77.9106 7.55082 2 -77.9106 9.75082 2 -77.9106 11.8508 2 
-77.9106 13.9508 2 -77.9106 16.1508 2 -77.9106 18.4508 2 
-77.9106 20.4508 2 -77.9106 22.5508 2 -77.9106 24.7508 2 
-77.9106 26.9508 2 -77.9106 29.0508 2 -77.9106 31.0508 2 
-77.9106 33.4508 2 -77.9106 35.6508 2 -77.9106 38.0508 2 
-77.9106 40.1508 2 -77.9106 42.2508 2 -77.9106 44.4508 2 
-77.9106 46.4508 2 -77.9106 48.5508 2 -77.9106 50.6508 2 
-77.9106 52.9508 2 -77.9106 55.1508 2 -77.9106 57.1508 2 
-17.9106 57.2508 2 -17.9106 54.9508 2 -17.9106 52.9508 2 
-17.9106 50.7508 2 -17.9106 48.7508 2 -17.9106 46.3508 2 
-17.9106 44.2508 2 -17.9106 42.1508 2 -17.9106 39.9508 2 
-17.9106 37.6508 2 -17.9106 35.4508 2 -17.9106 33.3508 2 
-17.9106 31.0508 2 -17.9106 28.9508 2 -17.9106 26.9508 2 
-17.9106 24.6508 2 -17.9106 22.4508 2 -17.9106 20.3508 2 
-17.9106 18.0508 2 -17.9106 15.8508 2 -17.9106 13.7508 2 
-17.9106 11.5508 2 -17.9106 9.35081 2 -17.9106 7.15082 2 
-17.9106 5.05082 2 -17.9106 2.75081 2 -17.9106 0.650815 2 
-17.9106 -1.64919 2 -17.9106 -3.64918 2 -17.9106 -5.84918 2 
-17.9106 -7.94918 2 -17.9106 -10.2492 2 -17.9106 -12.3492 2 
-17.9106 -14.4492 2 -17.9106 -16.6492 2 -17.9106 -19.1492 2 
-17.9106 -21.1492 2 -17.9106 -23.3492 2 -17.9106 -25.5492 2 
-17.9106 -27.7492 2 -17.9106 -30.0492 2 -17.9106 -32.2492 2 
-17.9106 -34.2492 2 -17.9106 -36.4492 2 -17.9106 -38.4492 2 
-60.8116 10.3513 2 -58.7416 10.3513 2 -56.6116 10.3513 2 
-54.5116 10.3513 2 -52.4716 10.3513 2 -50.3416 10.3513 2 
-48.0016 10.3513 2 -45.8116 10.3513 2 -43.7716 10.3513 2 
-41.7316 10.3513 2 -39.5116 10.3513 2 -37.4416 10.3513 2 
-35.0116 10.3513 2 -35.1316 8.35126 2 -37.1716 8.35126 2 
-39.3016 8.35126 2 -41.6116 8.35126 2 -43.6216 8.35126 2 
-45.8716 8.35126 2 -48.0016 8.35126 2 -50.1316 8.35126 2 
-52.4116 8.35126 2 -54.4516 8.35126 2 -56.7016 8.35126 2 
-58.8016 8.35126 2 -60.8716 8.35126 2 -75.7506 59.3508 0 
-73.5906 59.3508 0 -71.4906 59.3508 0 -69.4506 59.3508 0 
-67.3506 59.3508 0 -65.3106 59.3508 0 -63.0906 59.3508 0 
-60.9906 59.3508 0 -58.8906 59.3508 0 -56.4306 59.3508 0 
-54.1506 59.3508 0 -52.0506 59.3508 0 -50.0106 59.3508 0 
-47.6706 59.3508 0 -45.5706 59.3508 0 -43.4706 59.3508 0 
-41.3706 59.3508 0 -39.2106 59.3508 0 -37.1106 59.3508 0 
-34.8906 59.3508 0 -32.7906 59.3508 0 -30.6306 59.3508 0 
-28.5906 59.3508 0 -26.4306 59.3508 0 -24.3906 59.3508 0 
-22.2306 59.3508 0 -19.9506 59.3508 0 -77.9106 -38.5492 0 
-77.9106 -36.4492 0 -77.9106 -34.3492 0 -77.9106 -32.1492 0 
-77.9106 -29.9492 0 -77.9106 -27.8492 0 -77.9106 -25.5492 0 
-77.9106 -23.4492 0 -77.9106 -21.0492 0 -77.9106 -18.9492 0 
-77.9106 -16.6492 0 -77.9106 -14.4492 0 -77.9106 -12.3492 0 
-77.9106 -10.2492 0 -77.9106 -8.14919 0 -77.9106 -6.04919 0 
-77.9106 -3.94919 0 -77.9106 -1.94919 0 -77.9106 0.250815 0 
-77.9106 2.45081 0 -77.9106 4.65082 0 -77.9106 6.85081 0 
-77.9106 8.95082 0 -77.9106 11.0508 0 -77.9106 13.1508 0 
-77.9106 15.3508 0 -77.9106 17.6508 0 -77.9106 19.7508 0 
-77.9106 21.8508 0 -77.9106 24.2508 0 -77.9106 26.3508 0 
-77.9106 28.4508 0 -77.9106 30.6508 0 -77.9106 32.6508 0 
-77.9106 34.9508 0 -77.9106 37.0508 0 -77.9106 39.4508 0 
-77.9106 41.8508 0 -77.9106 43.9508 0 -77.9106 46.1508 0 
-77.9106 48.3508 0 -77.9106 50.4508 0 -77.9106 52.5508 0 
-77.9106 54.8508 0 -77.9106 57.2508 0 -17.9106 57.1508 0 
-17.9106 54.7508 0 -17.9106 52.5508 0 -17.9106 50.4508 0 
-17.9106 48.3508 0 -17.9106 46.0508 0 -17.9106 43.9508 0 
-17.9106 41.9508 0 -17.9106 39.7508 0 -17.9106 37.5508 0 
-17.9106 35.5508 0 -17.9106 33.1508 0 -17.9106 31.0508 0 
-17.9106 28.9508 0 -17.9106 26.7508 0 -17.9106 24.6508 0 
-17.9106 22.5508 0 -17.9106 20.4508 0 -17.9106 18.1508 0 
-17.9106 16.0508 0 -17.9106 13.8508 0 -17.9106 11.6508 0 
-17.9106 9.45082 0 -17.9106 7.15082 0 -17.9106 5.05082 0 
-17.9106 2.75081 0 -17.9106 0.650815 0 -17.9106 -1.44919 0 
-17.9106 -3.64918 0 -17.9106 -6.04919 0 -17.9106 -8.04918 0 
-17.9106 -10.3492 0 -17.9106 -12.7492 0 -17.9106 -14.7492 0 
-17.9106 -16.8492 0 -17.9106 -19.1492 0 -17.9106 -21.1492 0 
-17.9106 -23.4492 0 -17.9106 -25.5492 0 -17.9106 -27.6492 0 
-17.9106 -29.7492 0 -17.9106 -32.0492 0 -17.9106 -34.1492 0 
-17.9106 -36.4492 0 -17.9106 -38.4492 0 -60.7816 10.3513 0 
-58.5016 10.3513 0 -56.2216 10.3513 0 -53.9716 10.3513 0 
-51.6916 10.3513 0 -49.5916 10.3513 0 -47.5516 10.3513 0 
-45.5416 10.3513 0 -43.4416 10.3513 0 -41.3716 10.3513 0 
-39.0916 10.3513 0 -37.0816 10.3513 0 -34.9516 10.3513 0 
-35.1616 8.35126 0 -37.2316 8.35126 0 -39.3016 8.35126 0 
-41.3716 8.35126 0 -43.4416 8.35126 0 -45.6616 8.35126 0 
-47.8516 8.35126 0 -49.9816 8.35126 0 -52.3216 8.35126 0 
-54.3616 8.35126 0 -56.4016 8.35126 0 -58.4716 8.35126 0 
-60.6016 8.35126 0 -74.8623 57.5533 2 -72.6158 57.6484 2 
-70.3022 57.6508 2 -68.2684 57.4737 2 -66.1258 57.3748 2 
-64.0269 57.3781 2 -61.7971 57.357 2 -59.6775 57.3247 2 
-57.4825 57.2995 2 -55.385 57.3324 2 -53.2632 57.3248 2 
-51.1449 57.3216 2 -49.0007 57.3501 2 -46.8252 57.3613 2 
-44.6698 57.3513 2 -42.4431 57.3455 2 -40.3937 57.3573 2 
-38.1868 57.4152 2 -35.9422 57.4475 2 -33.7823 57.4357 2 
-31.5602 57.4109 2 -29.4063 57.3964 2 -27.3077 57.4544 2 
-25.2578 57.5396 2 -23.3354 57.6715 2 -21.2731 57.4813 2 
-19.4317 57.1695 2 -75.9769 -37.6314 2 -75.9848 -35.1627 2 
-75.9749 -32.8952 2 -75.9293 -30.5971 2 -75.8694 -28.4597 2 
-75.8577 -26.2308 2 -75.7937 -23.9313 2 -75.7332 -21.7326 2 
-75.8176 -19.6369 2 -75.7938 -17.4344 2 -75.7821 -15.194 2 
-75.8161 -13.0492 2 -75.8678 -10.9037 2 -75.8467 -8.73751 2 
-75.8067 -6.49617 2 -75.8461 -4.23923 2 -75.8727 -2.10369 2 
-75.8696 0.07885 2 -75.871 2.28566 2 -75.901 4.40913 2 
-75.9691 6.49373 2 -75.926 8.58185 2 -75.9362 10.7063 2 
-75.9672 12.88 2 -75.9294 15.135 2 -75.8996 17.2934 2 
-75.8308 19.3538 2 -75.8396 21.4875 2 -75.8407 23.6583 2 
-75.8512 25.8327 2 -75.8158 27.9091 2 -75.8183 30.1247 2 
-75.8524 32.2267 2 -75.8537 34.5275 2 -75.8848 36.749 2 
-75.8275 39.0068 2 -75.8095 41.2489 2 -75.8512 43.2867 2 
-75.9053 45.4267 2 -75.9463 47.5314 2 -75.8908 49.6785 2 
-75.8901 51.8779 2 -75.9272 53.9593 2 -76.0975 55.9205 2 
-19.4821 53.5201 2 -19.6148 51.7167 2 -19.7157 49.5668 2 
-19.7955 47.3889 2 -19.8446 45.1204 2 -19.924 42.9117 2 
-19.933 40.7608 2 -19.8991 38.5255 2 -19.8982 36.3188 2 
-19.9022 34.1164 2 -19.8791 31.9143 2 -19.8801 29.8101 2 
-19.8838 27.6592 2 -19.8565 25.4252 2 -19.8703 23.2329 2 
-19.8168 21.1408 2 -19.8244 18.8501 2 -19.8241 16.685 2 
-19.9318 14.4761 2 -19.9069 12.2918 2 -19.8512 10.0984 2 
-19.7929 7.98256 2 -19.7612 5.83673 2 -19.8158 3.54637 2 
-19.7639 1.44791 2 -19.7765 -0.800448 2 -19.8095 -2.97065 2 
-19.8075 -5.13001 2 -19.8427 -7.22717 2 -19.8919 -9.40576 2 
-19.8983 -11.6713 2 -19.8685 -13.7641 2 -19.8637 -16.0343 2 
-19.8932 -18.2809 2 -19.9087 -20.4222 2 -19.8886 -22.6476 2 
-19.8293 -24.7854 2 -19.7955 -26.9694 2 -19.8004 -29.2497 2 
-19.7432 -31.3389 2 -19.6817 -33.501 2 -19.6709 -35.6527 2 
-19.6196 -37.8517 2 -21.3203 -39.0236 2 -23.2523 -38.8087 2 
-25.4041 -38.793 2 -27.7199 -38.8079 2 -29.897 -38.6799 2 
-32.0858 -38.6262 2 -34.3865 -38.6057 2 -36.6404 -38.61 2 
-38.9574 -38.6109 2 -41.1306 -38.6014 2 -43.3688 -38.6192 2 
-45.6275 -38.6541 2 -47.742 -38.6355 2 -49.9362 -38.6042 2 
-52.0408 -38.6167 2 -54.2844 -38.6294 2 -56.5176 -38.6508 2 
-58.7729 -38.6671 2 -60.9246 -38.6811 2 -63.2144 -38.6785 2 
-65.3948 -38.7035 2 -67.5569 -38.7109 2 -69.8576 -38.7435 2 
-72.1786 -38.8044 2 -74.1796 -38.9016 2 -62.0825 12.1902 2 
-59.9262 12.2737 2 -57.7818 12.2909 2 -55.57 12.3305 2 
-53.4139 12.4042 2 -51.361 12.3776 2 -49.1461 12.3648 2 
[...]
POINT_DATA 12526
FIELD FieldData 19
Displacement 3 12526 double
0 0 0 0 0 0 0 0 0 
0 0 0 -4.12809 32.4555 -0.15827 -4.12811 32.4525 0.108438 
4.11195 32.4499 -0.132019 4.11 32.4465 0.134692 0.967903 15.773 0.00994924 
0.965612 15.7968 0.0926115 -0.967806 15.8095 -0.0052318 -0.98173 15.7731 0.0678894 
-0.976654 15.9986 -0.0152445 -0.987724 16.0211 0.0632991 0.973257 16.0046 0.0264699 
0.970808 16.008 0.0898634 0 0 0 0 0 0 
0 0 0 0 0 0 0 0 0 
0 0 0 0 0 0 0 0 0 
0 0 0 0 0 0 0 0 0 
0 0 0 0 0 0 0 0 0 
0 0 0 0 0 0 0 0 0 
0 0 0 0 0 0 0 0 0 
0 0 0 0 0 0 0 0 0 
0 0 0 0 0 0 0 0 0 
0 0 0 0 0 0 0 0 0 
0 0 0 0 0 0 0 0 0 
0 0 0 0 0 0 0 0 0 
0 0 0 0 0 0 0 0 0 
0 0 0 0 0 0 0 0 0 
0 0 0 0 0 0 0 0 0 
0 0 0 0 0 0 0 0 0 
0 0 0 0 0 0 0 0 0 
0 0 0 0 0 0 0 0 0 
3.79211 32.4335 -0.134385 3.51224 32.4183 -0.136378 3.22376 32.4013 -0.138275 
2.92592 32.3826 -0.140039 2.65059 32.3645 -0.141528 2.37342 32.3463 -0.142895 
2.07778 32.3272 -0.14423 1.77991 32.3092 -0.145459 1.48827 32.2933 -0.146563 
1.20321 32.2799 -0.147572 0.916687 32.2688 -0.148491 0.586553 32.2595 -0.149521 
0.306407 32.2547 -0.150313 -0.00816897 32.253 -0.151176 -0.314243 32.255 -0.151983 
-0.611368 32.2604 -0.152739 -0.933012 32.27 -0.15355 -1.21111 32.2811 -0.154199 
-1.52129 32.2962 -0.154932 -1.85427 32.3151 -0.155669 -2.13521 32.3327 -0.156253 
-2.43867 32.3527 -0.156839 -2.72359 32.3719 -0.157329 -3.01467 32.3912 -0.157749 
-3.28805 32.4086 -0.158037 -3.56837 32.4253 -0.158221 -3.86418 32.4416 -0.158272 
1.05357 1.17814 -0.217743 1.7475 2.03972 -0.114917 2.21307 2.76076 -0.0931849 
2.58173 3.43985 -0.0806503 2.87808 4.09583 -0.0730517 3.11729 4.73961 -0.0681074 
3.31749 5.40632 -0.0646296 3.46294 6.01299 -0.0624448 3.5779 6.61976 -0.0608312 
3.67675 7.31493 -0.0594043 3.73815 7.92561 -0.0583228 3.77836 8.53918 -0.0573901 
3.79903 9.15619 -0.0565542 3.80112 9.80699 -0.0557195 3.78552 10.4335 -0.054999 
3.74803 11.1577 -0.05434 3.69711 11.8317 -0.0539855 3.63035 12.5505 -0.0539238 
3.56556 13.1905 -0.0542572 3.49137 13.9469 -0.054968 3.43611 14.6231 -0.0556879 
3.39736 15.349 -0.0559538 3.38614 16.12 -0.0554066 3.40587 16.8565 -0.0542504 
3.4514 17.5851 -0.052961 3.51772 18.3345 -0.0522148 3.59611 19.1013 -0.0527118 
3.6643 19.7564 -0.0542893 3.73107 20.4356 -0.0569787 3.79298 21.1412 -0.0607048 
3.84571 21.844 -0.0650396 3.88765 22.5145 -0.0695288 3.92063 23.154 -0.0740016 
3.95243 23.924 -0.0794693 3.9754 24.6328 -0.0844852 3.99516 25.4098 -0.0898901 
4.00902 26.093 -0.0945386 4.02061 26.7793 -0.0990976 4.0312 27.5015 -0.103769 
4.04014 28.1606 -0.107917 4.04947 28.8551 -0.112163 4.05932 29.5517 -0.116287 
4.07123 30.3167 -0.120656 4.0841 31.0497 -0.124682 4.09701 31.7165 -0.1282 
-4.11339 31.7554 -0.155093 -4.0981 30.9886 -0.151571 -4.08609 30.3222 -0.148368 
-4.07422 29.5905 -0.144744 -4.06438 28.9269 -0.141364 -4.0532 28.1331 -0.137236 
-4.04334 27.4412 -0.13358 -4.03272 26.752 -0.129909 -4.01995 26.0332 -0.126072 
-4.00383 25.2853 -0.122101 -3.98467 24.5734 -0.118359 -3.96192 23.8969 -0.11489 
-3.93075 23.159 -0.111305 -3.89551 22.4874 -0.108216 -3.85498 21.8487 -0.105602 
-3.79919 21.1139 -0.103136 -3.73644 20.4078 -0.101604 -3.669 19.7282 -0.101079 
-3.58985 18.9734 -0.10183 -3.51509 18.2374 -0.103731 -3.45313 17.5205 -0.106012 
-3.4081 16.7563 -0.108307 -3.39217 15.9843 -0.109734 -3.40915 15.215 -0.109366 
-3.45186 14.4917 -0.108215 -3.51866 13.7198 -0.106046 -3.58696 13.0347 -0.10389 
-3.65943 12.3042 -0.101746 -3.71413 11.6829 -0.100322 -3.76133 11.0113 -0.0990039 
-3.79135 10.3788 -0.0978997 -3.80545 9.69347 -0.0970226 -3.80014 9.07297 -0.0963847 
-3.77638 8.4565 -0.0958633 -3.73028 7.81429 -0.0954142 -3.64899 7.08832 -0.0951053 
-3.55922 6.50969 -0.095022 -3.43168 5.87422 -0.0951552 -3.26936 5.2387 -0.0959009 
-3.06629 4.60063 -0.0971723 -2.80115 3.92578 -0.10029 -2.4855 3.26599 -0.105658 
-2.13226 2.64366 -0.113515 -1.64151 1.90717 -0.133052 -1.02966 1.1335 -0.20159 
0.850408 15.9444 0.03693 0.737399 15.9379 0.0395989 0.606351 15.9265 0.0402331 
0.465902 15.9194 0.0352975 0.323887 15.9125 0.0365661 0.172127 15.9087 0.0343301 
0.00456347 15.9086 0.030741 -0.152172 15.9109 0.0234589 -0.298768 15.9115 0.0233839 
-0.441453 15.9182 0.0205799 -0.590166 15.9279 0.016854 -0.719841 15.9373 0.0139774 
-0.856761 15.9569 0.00246801 -0.841032 15.835 0.0111288 -0.724425 15.8151 0.0127062 
-0.595004 15.802 0.0202385 -0.441607 15.7862 0.0199544 -0.303628 15.7778 0.0223081 
-0.146735 15.7744 0.0274896 0.00489214 15.774 0.0292704 0.156178 15.7743 0.0281081 
0.316191 15.78 0.0308288 0.455486 15.7877 0.0305776 0.602845 15.7987 0.0347535 
0.733283 15.8071 0.0306568 0.853318 15.8405 0.0433056 3.82211 32.4317 0.132579 
3.5343 32.4162 0.130451 3.25394 32.3999 0.128292 2.98054 32.3828 0.126125 
2.69752 32.3644 0.123889 2.42077 32.3461 0.121752 2.11738 32.3265 0.119506 
1.82823 32.3089 0.117497 1.53704 32.2926 0.115621 1.19358 32.2762 0.113637 
0.873295 32.2641 0.112022 0.577081 32.2561 0.110738 0.288504 32.2514 0.109663 
-0.0429718 32.2499 0.108677 -0.340416 32.2522 0.107997 -0.637394 32.258 0.107501 
-0.933465 32.2669 0.107186 -1.23673 32.2791 0.10702 -1.52993 32.2935 0.107006 
-1.8379 32.311 0.107105 -2.12715 32.3291 0.107303 -2.42246 32.3486 0.107562 
-2.69935 32.3672 0.107831 -2.99055 32.3866 0.108109 -3.26401 32.4041 0.108317 
-3.55239 32.4214 0.108454 -3.85619 32.4382 0.108473 0.995451 1.17066 0.218224 
1.65127 1.91901 0.15024 2.11087 2.61201 0.156545 2.49771 3.29484 0.159437 
2.80926 3.95283 0.161569 3.05058 4.56832 0.163593 3.26367 5.23541 0.165808 
3.4191 5.84193 0.167835 3.558 6.5349 0.170097 3.65024 7.14262 0.172087 
3.72358 7.8107 0.174374 3.76947 8.45292 0.176602 3.79302 9.06944 0.178842 
3.79808 9.69001 0.181323 3.78571 10.3156 0.184152 3.75698 10.9474 0.187466 
3.71321 11.5875 0.191468 3.65953 12.2072 0.196092 3.59076 12.9033 0.202141 
3.51841 13.618 0.208927 3.45198 14.3532 0.215828 3.40299 15.1075 0.221688 
3.38183 15.8401 0.225206 3.39033 16.5765 0.225855 3.42685 17.3078 0.223669 
3.48744 18.0618 0.219195 3.56393 18.8336 0.213272 3.6364 19.5248 0.207567 
3.70533 20.2062 0.202082 3.77574 20.9773 0.196235 3.82849 21.6485 0.191531 
3.87292 22.3189 0.18716 3.91121 23.022 0.182858 3.93956 23.663 0.179142 
3.96573 24.403 0.17506 3.98476 25.0817 0.171476 4.0021 25.8611 0.167492 
4.01609 26.6446 0.163586 4.02654 27.3334 0.160214 4.03657 28.058 0.156699 
4.0464 28.7853 0.153182 4.05624 29.4817 0.149803 4.06699 30.18 0.146378 
4.08022 30.9461 0.142528 4.0957 31.7464 0.138356 -4.11269 31.719 0.111809 
-4.09684 30.9189 0.1154 -4.08381 30.186 0.118561 -4.07266 29.4878 0.121456 
-4.06243 28.7914 0.124257 -4.05173 28.0311 0.127236 -4.04176 27.3396 0.129873 
-4.03148 26.6836 0.132316 -4.01848 25.9651 0.134935 -4.00281 25.25 0.137479 
-3.98533 24.6029 0.139771 -3.95915 23.8299 0.142464 -3.93035 23.1564 0.144856 
-3.89503 22.4849 0.147272 -3.84994 21.7826 0.149967 -3.7984 21.1116 0.152824 
-3.73859 20.4381 0.155859 -3.67147 19.759 0.15901 -3.59253 19.0053 0.162764 
-3.52096 18.3044 0.166268 -3.45502 17.5551 0.169463 -3.40875 16.7917 0.171389 
-3.39111 16.0207 0.171472 -3.40783 15.2164 0.16855 -3.45048 14.4937 0.164267 
-3.51731 13.7211 0.158639 -3.58581 13.0357 0.153689 -3.65245 12.3678 0.149418 
-3.71331 11.6836 0.145953 -3.76406 10.9511 0.143218 -3.79146 10.3492 0.141586 
-3.8047 9.66409 0.140147 -3.79621 8.95546 0.138966 -3.77056 8.3689 0.138152 
-3.72414 7.75625 0.137385 -3.64823 7.0884 0.136709 -3.55863 6.50974 0.136137 
-3.42476 5.84585 0.135599 -3.26923 5.2394 0.135516 -3.07659 4.63002 0.135479 
-2.84002 4.01513 0.13584 -2.51915 3.32789 0.136998 -2.15508 2.67688 0.138926 
-1.64938 1.91993 0.14405 -1.03626 1.18863 0.201178 0.851148 15.9422 0.0770241 
0.717091 15.9326 0.0659665 0.575011 15.9263 0.0620552 0.424677 15.9187 0.0578026 
0.265922 15.9108 0.0514372 0.115738 15.9078 0.0478076 -0.0316481 15.9046 0.0415032 
-0.176161 15.9131 0.0456287 -0.325075 15.9157 0.041112 -0.4682 15.9215 0.0398561 
-0.619106 15.931 0.0408662 -0.745435 15.9423 0.0440938 -0.864529 15.9333 0.0329276 
-0.841345 15.8263 0.0496126 -0.725246 15.8098 0.0494735 -0.59672 15.8012 0.0437543 
-0.462023 15.791 0.041839 -0.320173 15.7825 0.042354 -0.165039 15.7817 0.0362363 
-0.0104991 15.7709 0.0468357 0.140463 15.7745 0.047165 0.303931 15.7806 0.0498149 
0.44357 15.7888 0.0532243 0.577708 15.7988 0.058008 0.706745 15.8094 0.0694482 
0.827401 15.8221 0.0772911 3.69315 31.8298 -0.131782 3.39361 31.8446 -0.134006 
3.08348 31.8262 -0.13602 2.80833 31.749 -0.137366 2.51762 31.6962 -0.138828 
2.23194 31.6779 -0.14032 1.92647 31.6508 -0.14175 1.63435 31.6222 -0.142991 
1.3303 31.5975 -0.144186 1.0387 31.5954 -0.145318 0.742385 31.5824 -0.146337 
0.445778 31.5743 -0.147279 0.145028 31.5803 -0.148214 -0.16034 31.5843 -0.149078 
-0.462702 31.5849 -0.149853 -0.77448 31.5909 -0.150613 -1.06064 31.6054 -0.151283 
-1.3679 31.6392 -0.152027 -1.6788 31.6673 -0.152701 -1.97605 31.6819 -0.153239 
-2.27995 31.694 -0.153718 -2.5728 31.7096 -0.154137 -2.85706 31.7486 -0.154587 
-3.13356 31.7955 -0.155012 -3.3922 31.8558 -0.155423 -3.66647 31.8084 -0.155268 
-3.90999 31.7178 -0.154883 1.01673 1.05015 -0.173541 1.68285 1.98363 -0.126129 
2.13396 2.7636 -0.105758 2.48664 3.50645 -0.0931671 2.7454 4.17333 -0.0854819 
2.96694 4.86002 -0.0795866 3.14136 5.55566 -0.0755187 3.27023 6.21731 -0.0726763 
3.38053 6.85301 -0.0699513 3.45571 7.51483 -0.0680212 3.50811 8.18947 -0.0663887 
3.54173 8.8377 -0.0649273 3.55761 9.48805 -0.0635516 3.54564 10.1475 -0.0625554 
3.51181 10.8351 -0.0616993 3.46914 11.5333 -0.0606854 3.41252 12.2016 -0.0598451 
3.33958 12.895 -0.0590592 3.26113 13.6083 -0.0582851 3.19378 14.3073 -0.0573852 
3.14832 15.0057 -0.0564418 3.11333 15.7153 -0.0554758 3.11782 16.4413 -0.0546699 
3.15844 17.1824 -0.0542894 3.21769 17.9429 -0.0547019 3.289 18.6612 -0.0559634 
3.3548 19.3378 -0.0580982 3.42964 20.0338 -0.0608205 3.49684 20.737 -0.0642487 
3.55574 21.4389 -0.0681168 3.59709 22.1073 -0.0722207 3.63735 22.8216 -0.0767102 
3.67206 23.5009 -0.0810257 3.69839 24.2458 -0.0858648 3.72207 24.9678 -0.0904815 
3.73021 25.7031 -0.0952794 3.74021 26.4365 -0.0999157 3.75511 27.1059 -0.103984 
3.77113 27.8111 -0.108182 3.78502 28.5066 -0.112256 3.78667 29.2174 -0.116432 
3.79678 29.9476 -0.120555 3.81274 30.6401 -0.12434 3.8472 31.2943 -0.127709 
-3.88012 30.5019 -0.149139 -3.85265 29.9013 -0.146217 -3.82884 29.187 -0.142691 
-3.80867 28.4652 -0.13908 -3.79255 27.7157 -0.135294 -3.7723 26.988 -0.131612 
-3.76036 26.2823 -0.128036 -3.75136 25.5519 -0.124346 -3.73492 24.8331 -0.120781 
-3.71349 24.1182 -0.117333 -3.68988 23.4061 -0.114033 -3.65785 22.7269 -0.111077 
-3.61704 22.0337 -0.108338 -3.56924 21.3145 -0.105854 -3.50713 20.6064 -0.103993 
-3.44759 19.9294 -0.102701 -3.36607 19.1807 -0.102176 -3.28743 18.4656 -0.102438 
-3.19855 17.7248 -0.103223 -3.14536 16.9861 -0.104369 -3.12486 16.238 -0.105679 
-3.13908 15.5155 -0.106468 -3.1815 14.7883 -0.106721 -3.24084 14.0252 -0.10641 
-3.32025 13.3379 -0.105573 -3.39681 12.6165 -0.104444 -3.4602 11.9321 -0.103428 
-3.51474 11.2598 -0.102527 -3.54814 10.6141 -0.101741 -3.56402 9.94856 -0.101178 
-3.56614 9.26061 -0.100643 -3.55337 8.62871 -0.100226 -3.51419 7.94562 -0.100009 
-3.4468 7.26993 -0.100054 -3.35895 6.62624 -0.100316 -3.24254 5.95791 -0.100809 
-3.10293 5.31627 -0.101719 -2.91851 4.65423 -0.103371 -2.67082 3.94897 -0.106616 
-2.39617 3.29401 -0.111309 -2.04157 2.59215 -0.11917 -1.584 1.84351 -0.134594 
-0.971248 1.01073 -0.178131 -0.452344 0.465062 -0.173681 -0.429608 0.493082 -0.156836 
-0.370533 0.474757 -0.152788 -0.313947 0.456919 -0.160546 -0.281324 0.481504 -0.176658 
-0.246524 0.494958 -0.179904 -0.206862 0.497148 -0.184175 -0.168836 0.497872 -0.184129 
-0.132172 0.499273 -0.183741 -0.0976845 0.499103 -0.185842 -0.0632566 0.496052 -0.185233 
-0.0306108 0.486379 -0.184334 0.000563777 0.490688 -0.184639 0.0319404 0.498969 -0.183791 
0.0628901 0.496689 -0.183498 0.0944536 0.494198 -0.182936 0.126806 0.487763 -0.183817 
0.159768 0.485845 -0.182856 0.193892 0.481528 -0.183164 0.231821 0.484938 -0.182674 
0.268506 0.481394 -0.183788 0.311039 0.484452 -0.185696 0.35867 0.487825 -0.18817 
0.413041 0.489655 -0.193527 0.474248 0.500279 -0.202525 1.24689 16.6041 -0.0913128 
1.00797 16.5234 -0.104832 0.810693 16.5029 -0.114407 0.625862 16.5011 -0.117436 
0.449761 16.5152 -0.121644 0.279756 16.5022 -0.123082 0.0996246 16.4962 -0.125862 
-0.0806215 16.5121 -0.129411 -0.258594 16.5175 -0.131813 -0.434998 16.5145 -0.133673 
-0.606619 16.5165 -0.135858 -0.798916 16.5292 -0.135897 -1.01173 16.5577 -0.12814 
-1.28126 16.6057 -0.118966 -1.33369 15.9316 -0.0540022 -1.28455 15.1717 -0.138639 
-1.0249 15.1845 -0.155653 -0.813973 15.1756 -0.151642 -0.621879 15.1709 -0.149401 
-0.43117 15.1864 -0.142068 -0.249595 15.1834 -0.136934 -0.0759858 15.1854 -0.134552 
0.0963099 15.1787 -0.13027 0.280478 15.1728 -0.128921 0.456835 15.1765 -0.126798 
0.646652 15.1739 -0.123634 0.84047 15.185 -0.120824 1.03923 15.2023 -0.11887 
1.29542 15.1737 -0.107609 1.30303 15.957 -0.01496 1.47044 16.6754 -0.0484606 
-1.48736 16.6434 -0.0827812 -1.54588 15.0988 -0.0952088 1.48454 15.2205 -0.0529576 
1.59041 17.2945 -0.0762392 3.24767 31.3162 -0.132135 2.9704 31.1605 -0.13321 
2.69047 31.0555 -0.134509 2.3976 30.9886 -0.136003 2.08806 30.9432 -0.137591 
1.78241 30.9347 -0.139193 1.47525 30.9239 -0.140659 1.16763 30.8956 -0.141914 
0.879591 30.8855 -0.143046 0.588096 30.8851 -0.144122 0.298763 30.8927 -0.145121 
-0.00409416 30.8795 -0.145985 -0.313162 30.8911 -0.146867 -0.621314 30.8732 -0.147542 
-0.91429 30.9036 -0.148287 -1.20024 30.9325 -0.148944 -1.52567 30.9636 -0.149613 
-1.82698 30.9699 -0.15007 -2.12652 30.9748 -0.15045 -2.42783 31.0004 -0.150852 
-2.71822 31.0373 -0.15124 -2.99337 31.1052 -0.151707 -3.25366 31.1903 -0.152216 
-3.50334 31.2851 -0.152748 0.823995 17.1653 -0.10643 -0.982497 1.11542 -0.146272 
1.65662 2.12281 -0.130697 2.05201 2.90137 -0.114396 2.34527 3.61387 -0.103858 
2.57236 4.29088 -0.0964361 2.7803 5.03578 -0.0899612 2.94355 5.7667 -0.0851001 
3.06129 6.42946 -0.0814532 3.1508 7.09473 -0.0785497 3.21587 7.7786 -0.0760362 
3.26364 8.48702 -0.073813 3.27624 9.12755 -0.0723832 3.28301 9.82678 -0.070631 
3.2702 10.5035 -0.0691255 3.2315 11.2162 -0.0677888 3.17946 11.883 -0.0665172 
3.10369 12.5717 -0.0652374 3.02256 13.295 -0.0632486 2.96277 13.9764 -0.0609578 
2.89019 14.6425 -0.0587174 2.81938 15.3394 -0.0565547 2.80674 16.0466 -0.0550464 
2.84201 16.776 -0.0546884 2.89208 17.5287 -0.0559179 2.96118 18.2515 -0.0582052 
3.04635 18.9465 -0.0609162 3.12875 19.6322 -0.06398 3.19044 20.3166 -0.0675692 
3.24255 21.0169 -0.0715013 3.29039 21.7091 -0.0754306 3.33723 22.4192 -0.0794495 
3.37903 23.1258 -0.0834646 3.40246 23.8352 -0.0877431 3.42288 24.5527 -0.0920196 
3.4327 25.3016 -0.0965509 3.43733 26.0443 -0.101002 3.45641 26.7506 -0.104993 
3.47282 27.4224 -0.108763 3.49755 28.1438 -0.112696 3.50704 28.8604 -0.116692 
3.51067 29.5881 -0.120745 3.52232 30.3196 -0.124707 3.54678 31.1315 -0.128998 
-1.79951 15.6157 -0.086814 1.04329 1.2084 -0.161421 -3.64068 30.2567 -0.147892 
-3.59237 29.5421 -0.144454 -3.54856 28.7952 -0.140847 -3.51886 28.0308 -0.137149 
-3.50097 27.2561 -0.133397 -3.49014 26.5562 -0.130019 -3.47912 25.804 -0.126417 
-3.46568 25.0693 -0.122963 -3.45476 24.3735 -0.119754 -3.42806 23.6549 -0.116611 
-3.40628 22.953 -0.113652 -3.38019 22.255 -0.110893 -3.33605 21.5509 -0.108413 
-3.2743 20.8072 -0.106216 -3.2048 20.1235 -0.104537 -3.13076 19.4034 -0.103109 
-3.0449 18.6799 -0.102091 -2.9395 17.9515 -0.101397 -2.87485 17.2418 -0.101325 
-2.84285 16.4818 -0.101946 -2.86374 15.7848 -0.103254 -2.89955 15.0401 -0.104608 
-2.94061 14.3206 -0.105776 -3.02607 13.6119 -0.106522 -3.12452 12.9073 -0.106489 
-3.20618 12.1985 -0.106066 -3.25284 11.5253 -0.105722 -3.28522 10.8585 -0.10541 
-3.30646 10.1887 -0.105119 -3.31363 9.48778 -0.104831 -3.30125 8.79949 -0.104682 
-3.26769 8.11221 -0.104711 -3.21583 7.42865 -0.104903 -3.13418 6.74265 -0.105392 
-3.03272 6.0654 -0.106052 -2.90018 5.38931 -0.107337 -2.73411 4.72778 -0.109008 
-2.50535 4.00524 -0.112109 -2.2561 3.33382 -0.115747 -1.93291 2.62955 -0.121635 
-1.5008 1.86797 -0.131488 -0.902732 1.15366 -0.139809 -0.697574 1.01345 -0.143052 
-0.631685 1.04998 -0.149263 -0.562674 1.08958 -0.156738 -0.496234 1.12784 -0.161828 
-0.406322 1.11301 -0.166052 -0.323985 1.11233 -0.168676 -0.247438 1.10264 -0.170054 
-0.179016 1.09965 -0.170575 -0.105657 1.08915 -0.170744 -0.037956 1.08348 -0.170296 
0.0259931 1.08893 -0.169741 0.0904415 1.07259 -0.169441 0.15716 1.08151 -0.169397 
0.226223 1.07582 -0.169456 0.294919 1.06359 -0.169378 0.365978 1.06284 -0.168796 
0.441245 1.05662 -0.168146 0.52263 1.05506 -0.167595 0.611931 1.06505 -0.167197 
0.703097 1.06362 -0.166449 0.79801 1.04758 -0.16621 1.06248 17.189 -0.0997231 
-1.77211 16.4497 -0.0836562 1.31445 17.2377 -0.0920347 0.608259 17.1681 -0.110513 
0.414621 17.1866 -0.113234 0.213976 17.1893 -0.115383 0.000561993 17.1818 -0.116317 
-0.205495 17.1727 -0.116439 -0.402832 17.1824 -0.116628 -0.604979 17.1846 -0.117442 
-0.834133 17.2115 -0.117593 -1.07612 17.243 -0.116408 -1.35616 17.2837 -0.113885 
-1.62786 17.3185 -0.103144 1.7316 16.447 -0.0445962 -1.60952 14.4966 -0.121403 
1.72891 15.5815 -0.0466593 -1.38781 14.3866 -0.135818 -0.626077 14.434 -0.136266 
-0.401782 14.4818 -0.131535 -0.185391 14.4956 -0.125287 0.0115174 14.4638 -0.119554 
0.21346 14.4311 -0.115094 0.428735 14.4192 -0.111928 0.652196 14.4163 -0.109352 
0.900475 14.4147 -0.106894 1.15 14.4256 -0.10402 1.42486 14.4528 -0.0978185 
1.67228 14.5498 -0.0832271 -1.11016 14.3931 -0.142267 -0.851805 14.4228 -0.140673 
-1.90741 17.2342 -0.0920719 -3.74351 31.0218 -0.151562 -1.95512 14.8457 -0.100214 
1.86528 17.3041 -0.0612601 -1.91559 14.2203 -0.112243 1.89068 14.7845 -0.064764 
0.346284 17.9388 -0.113727 2.89687 30.4275 -0.129889 2.58269 30.2998 -0.131417 
2.27207 30.2426 -0.133178 1.94553 30.1763 -0.134867 1.63215 30.1377 -0.136461 
1.3128 30.1363 -0.138095 1.01675 30.1537 -0.139532 0.732015 30.1481 -0.140695 
0.446592 30.1541 -0.141785 0.141678 30.1276 -0.142699 -0.159996 30.0867 -0.143428 
-0.473005 30.0796 -0.144199 -0.756264 30.1057 -0.144919 -1.05668 30.1512 -0.145659 
-1.3593 30.1808 -0.146252 -1.68002 30.2226 -0.146836 -1.98607 30.2404 -0.14722 
-2.29022 30.2571 -0.147523 -2.59052 30.2922 -0.147838 -2.87976 30.3663 -0.148277 
-3.16115 30.4811 -0.148875 0.570226 17.9238 -0.111602 0.807518 17.931 -0.108122 
1.60841 2.33004 -0.133868 1.91276 3.02415 -0.122326 2.16936 3.75081 -0.11292 
2.37289 4.46956 -0.105838 2.57159 5.25275 -0.0987718 2.72484 5.99724 -0.0933323 
2.81864 6.66976 -0.0896902 2.89423 7.36745 -0.0864616 2.94921 8.08549 -0.0835941 
2.98271 8.79759 -0.0811826 2.99408 9.46772 -0.0792065 2.98961 10.1681 -0.0773228 
2.96795 10.8841 -0.0754919 2.92875 11.5658 -0.073789 2.85221 12.2819 -0.072214 
2.75471 12.9873 -0.0702665 2.66781 13.7105 -0.0667408 2.6615 14.3299 -0.0623722 
2.51894 14.9483 -0.0590959 2.44837 15.6489 -0.0552506 2.45161 16.4125 -0.0540617 
2.57253 17.1217 -0.0555606 2.58396 17.8029 -0.0592697 2.70103 18.5024 -0.0630477 
2.81358 19.2043 -0.066637 2.88219 19.9225 -0.0708413 2.93657 20.5974 -0.0747275 
2.97938 21.3024 -0.0787676 3.01542 21.9885 -0.0825989 3.05471 22.7089 -0.0864279 
3.09337 23.4335 -0.0901782 3.11138 24.1539 -0.0941514 3.11908 24.8926 -0.0982956 
3.12952 25.6651 -0.102518 3.14561 26.383 -0.106319 3.16557 27.0738 -0.109907 
3.18932 27.7716 -0.113487 3.21813 28.4863 -0.117112 3.21486 29.2311 -0.121162 
3.20036 29.9478 -0.125124 3.23032 30.6605 -0.128725 1.25992 1.66607 -0.148351 
1.90548 18.0492 -0.0753568 -1.42223 13.5192 -0.130506 -3.29575 29.2004 -0.142884 
-3.24524 28.4238 -0.139259 -3.21509 27.612 -0.135492 -3.20024 26.8509 -0.131982 
-3.17754 26.1075 -0.128623 -3.17699 25.3587 -0.125248 -3.16606 24.6275 -0.12205 
-3.14478 23.8831 -0.118938 -3.12951 23.1949 -0.116155 -3.10473 22.51 -0.113554 
-3.07001 21.7952 -0.111029 -3.01787 21.0664 -0.108709 -2.94721 20.3091 -0.106507 
-2.8664 19.6014 -0.104605 -2.82343 18.9393 -0.102712 -2.68505 18.2458 -0.100783 