# vtk DataFile Version 4.2
vtk output
ASCII
DATASET UNSTRUCTURED_GRID
POINTS 13529 float
-6.78415 -49.2584 2 -6.78415 -49.2584 0 -71.7842 -49.2584 2 
-71.7842 -49.2584 0 -6.78415 50.7416 2 -6.78415 50.7416 0 
-71.7842 50.7416 2 -71.7842 50.7416 0 -42.0132 12 2 
-54.0132 0 2 -42.0132 0 2 -27.9984 0 2 
-39.9984 12 2 -39.9984 0 2 -54.0007 -2.00067 2 
-42.0007 -14.0007 2 -42.0007 -2.00067 2 -40.0038 -14.0372 2 
-28.0038 -2.03721 2 -40.0038 -2.03721 2 -42.0132 12 0 
-54.0132 0 0 -42.0132 0 0 -27.9984 0 0 
-39.9984 12 0 -39.9984 0 0 -54.0007 -2.00067 0 
-42.0007 -14.0007 0 -42.0007 -2.00067 0 -40.0038 -14.0372 0 
-28.0038 -2.03721 0 -40.0038 -2.03721 0 -57.2376 -1.0443 2 
-57.2376 -1.0443 0 -40.9748 15.2199 2 -40.9748 15.2199 0 
-40.9734 -17.307 2 -40.9734 -17.307 0 -24.7106 -1.04283 2 
-24.7106 -1.04283 0 -42.0132 2.076 2 -42.0132 3.996 2 
-42.0132 5.88 2 -42.0132 7.92 2 -42.0132 9.864 2 
-43.5972 10.416 2 -45.0372 8.976 2 -46.5012 7.512 2 
-48.0132 6 2 -49.5252 4.488 2 -51.0372 2.976 2 
-52.4652 1.548 2 -44.0052 0 2 -46.1652 0 2 
-48.0492 0 2 -49.9452 0 2 -51.9252 0 2 
-42.0132 2.448 0 -42.0132 5.004 0 -42.0132 7.416 0 
-42.0132 9.792 0 -43.4892 10.524 0 -45.0372 8.976 0 
-46.5012 7.512 0 -47.9412 6.072 0 -49.3692 4.644 0 
-50.8812 3.132 0 -52.5492 1.464 0 -44.2452 0 0 
-46.9452 0 0 -49.5492 0 0 -51.9012 0 0 
-37.5144 0 2 -34.9464 0 2 -32.6664 0 2 
-30.3504 0 2 -38.4624 10.464 2 -37.0224 9.024 2 
-35.4624 7.464 2 -34.0104 6.012 2 -32.5104 4.512 2 
-31.0224 3.024 2 -29.5584 1.56 2 -39.9984 2.076 2 
-39.9984 3.984 2 -39.9984 6 2 -39.9984 7.956 2 
-39.9984 9.972 2 -37.5504 0 0 -34.9944 0 0 
-32.7384 0 0 -30.2304 0 0 -38.4984 10.5 0 
-36.9504 8.952 0 -35.4864 7.488 0 -34.0224 6.024 0 
-32.5104 4.512 0 -30.9504 2.952 0 -29.4624 1.464 0 
-39.9984 2.148 0 -39.9984 3.996 0 -39.9984 5.988 0 
-39.9984 7.932 0 -39.9984 10.032 0 -43.9207 -2.00067 2 
-45.9967 -2.00067 2 -48.0487 -2.00067 2 -50.2447 -2.00067 2 
-52.1287 -2.00067 2 -52.4287 -3.57267 2 -50.9887 -5.01267 2 
-49.5607 -6.44067 2 -48.0607 -7.94067 2 -46.6087 -9.39267 2 
-45.1567 -10.8447 2 -43.4887 -12.5127 2 -42.0007 -4.06467 2 
-42.0007 -5.99667 2 -42.0007 -8.06067 2 -42.0007 -9.98067 2 
-42.0007 -12.0687 2 -44.4007 -2.00067 0 -46.9087 -2.00067 0 
-49.5727 -2.00067 0 -51.9247 -2.00067 0 -52.4767 -3.52467 0 
-50.9647 -5.03667 0 -49.3327 -6.66867 0 -47.8687 -8.13267 0 
-46.4047 -9.59667 0 -44.9287 -11.0727 0 -43.5007 -12.5007 0 
-42.0007 -3.94467 0 -42.0007 -6.00867 0 -42.0007 -7.98867 0 
-42.0007 -10.0647 0 -42.0007 -11.9967 0 -40.0038 -4.01721 2 
-40.0038 -6.04521 2 -40.0038 -8.20521 2 -40.0038 -10.1972 2 
-40.0038 -12.1172 2 -29.4918 -3.52521 2 -30.9798 -5.01321 2 
-32.4678 -6.50121 2 -34.0038 -8.03721 2 -35.4678 -9.50121 2 
-37.0158 -11.0492 2 -38.4798 -12.5132 2 -37.6158 -2.03721 2 
-35.0718 -2.03721 2 -32.5518 -2.03721 2 -30.1758 -2.03721 2 
-40.0038 -4.06521 0 -40.0038 -6.05721 0 -40.0038 -8.08521 0 
-40.0038 -10.0772 0 -40.0038 -12.1052 0 -29.4798 -3.51321 0 
-30.9798 -5.01321 0 -32.5158 -6.54921 0 -34.0878 -8.12121 0 
-35.6838 -9.71721 0 -37.1478 -11.1812 0 -38.5518 -12.5852 0 
-38.0358 -2.03721 0 -36.0198 -2.03721 0 -33.9438 -2.03721 0 
-31.9038 -2.03721 0 -29.9118 -2.03721 0 -8.86415 -49.2584 0 
-11.2042 -49.2584 0 -13.7392 -49.2584 0 -16.1442 -49.2584 0 
-18.8742 -49.2584 0 -21.6042 -49.2584 0 -24.3992 -49.2584 0 
-27.1942 -49.2584 0 -30.0542 -49.2584 0 -32.9792 -49.2584 0 
-35.5792 -49.2584 0 -38.2442 -49.2584 0 -40.8442 -49.2584 0 
-43.1842 -49.2584 0 -45.7842 -49.2584 0 -48.4492 -49.2584 0 
-51.2442 -49.2584 0 -54.0392 -49.2584 0 -56.7042 -49.2584 0 
-59.3692 -49.2584 0 -62.1642 -49.2584 0 -64.7642 -49.2584 0 
-67.2342 -49.2584 0 -69.7042 -49.2584 0 -9.12415 -49.2584 2 
-11.2042 -49.2584 2 -13.2842 -49.2584 2 -15.2992 -49.2584 2 
-17.4442 -49.2584 2 -19.7842 -49.2584 2 -21.7992 -49.2584 2 
-24.0742 -49.2584 2 -26.2192 -49.2584 2 -28.3642 -49.2584 2 
-30.7692 -49.2584 2 -32.9142 -49.2584 2 -35.0592 -49.2584 2 
-37.3342 -49.2584 2 -39.3492 -49.2584 2 -41.4942 -49.2584 2 
-43.5092 -49.2584 2 -45.8492 -49.2584 2 -47.9292 -49.2584 2 
-50.1392 -49.2584 2 -52.3492 -49.2584 2 -54.4292 -49.2584 2 
-56.7692 -49.2584 2 -59.0442 -49.2584 2 -61.1242 -49.2584 2 
-63.4642 -49.2584 2 -65.4792 -49.2584 2 -67.6242 -49.2584 2 
-69.7042 -49.2584 2 -69.6392 50.7416 2 -67.6242 50.7416 2 
-65.3492 50.7416 2 -63.2692 50.7416 2 -61.0592 50.7416 2 
-58.8492 50.7416 2 -56.7692 50.7416 2 -54.4942 50.7416 2 
-52.1542 50.7416 2 -50.0742 50.7416 2 -47.7992 50.7416 2 
-45.7192 50.7416 2 -43.6392 50.7416 2 -41.6242 50.7416 2 
-39.4142 50.7416 2 -37.2042 50.7416 2 -35.1242 50.7416 2 
-32.7842 50.7416 2 -30.7692 50.7416 2 -28.5592 50.7416 2 
-26.0892 50.7416 2 -24.0742 50.7416 2 -21.8642 50.7416 2 
-19.7192 50.7416 2 -17.6392 50.7416 2 -15.5592 50.7416 2 
-13.4142 50.7416 2 -11.3992 50.7416 2 -9.12415 50.7416 2 
-71.7842 -47.0584 2 -71.7842 -44.9585 2 -71.7842 -42.7584 2 
-71.7842 -40.7584 2 -71.7842 -38.6585 2 -71.7842 -36.2584 2 
-71.7842 -34.1585 2 -71.7842 -31.9585 2 -71.7842 -29.6585 2 
-71.7842 -27.6585 2 -71.7842 -25.5585 2 -71.7842 -23.2584 2 
-71.7842 -21.0585 2 -71.7842 -18.6585 2 -71.7842 -16.5585 2 
-71.7842 -14.5584 2 -71.7842 -12.3584 2 -71.7842 -10.1585 2 
-71.7842 -8.05845 2 -71.7842 -5.85845 2 -71.7842 -3.75845 2 
-71.7842 -1.55845 2 -71.7842 0.74155 2 -71.7842 2.94155 2 
-71.7842 5.24155 2 -71.7842 7.44155 2 -71.7842 9.54155 2 
-71.7842 11.7415 2 -71.7842 13.8415 2 -71.7842 16.0415 2 
-71.7842 18.0415 2 -71.7842 20.1416 2 -71.7842 22.4415 2 
-71.7842 24.5415 2 -71.7842 26.7416 2 -71.7842 29.2416 2 
-71.7842 31.3415 2 -71.7842 33.4416 2 -71.7842 35.7416 2 
-71.7842 37.8415 2 -71.7842 39.8415 2 -71.7842 42.1415 2 
-71.7842 44.2416 2 -71.7842 46.4416 2 -71.7842 48.4416 2 
-6.78415 48.5415 2 -6.78415 46.4416 2 -6.78415 44.3415 2 
-6.78415 42.2416 2 -6.78415 40.1415 2 -6.78415 37.7416 2 
-6.78415 35.5415 2 -6.78415 33.1415 2 -6.78415 31.1416 2 
-6.78415 29.0415 2 -6.78415 26.8415 2 -6.78415 24.4415 2 
-6.78415 22.3415 2 -6.78415 20.2416 2 -6.78415 18.1416 2 
-6.78415 15.7415 2 -6.78415 13.6416 2 -6.78415 11.5415 2 
-6.78415 9.44155 2 -6.78415 7.24155 2 -6.78415 5.14155 2 
-6.78415 2.94155 2 -6.78415 0.74155 2 -6.78415 -1.35845 2 
-6.78415 -3.65845 2 -6.78415 -5.75845 2 -6.78415 -7.75845 2 
-6.78415 -10.0584 2 -6.78415 -12.1585 2 -6.78415 -14.4585 2 
-6.78415 -16.5585 2 -6.78415 -18.6585 2 -6.78415 -20.8584 2 
-6.78415 -22.9585 2 -6.78415 -25.3584 2 -6.78415 -27.4585 2 
-6.78415 -29.5585 2 -6.78415 -31.7584 2 -6.78415 -33.9585 2 
-6.78415 -36.2584 2 -6.78415 -38.4585 2 -6.78415 -40.5584 2 
-6.78415 -42.6585 2 -6.78415 -44.8585 2 -6.78415 -46.8585 2 
-26.158 -2.49034 2 -27.6217 -3.95412 2 -29.1992 -5.53175 2 
-30.6465 -6.97926 2 -32.0939 -8.42677 2 -33.525 -9.85802 2 
-35.0212 -11.3543 2 -36.5011 -12.8344 2 -37.9485 -14.2819 2 
-39.3796 -15.7131 2 -42.4371 -15.8434 2 -43.9009 -14.3797 2 
-45.5273 -12.7535 2 -47.0399 -11.241 2 -48.5362 -9.74486 2 
-49.9837 -8.29748 2 -51.3824 -6.89888 2 -52.895 -5.38645 2 
-54.4076 -3.87402 2 -55.8226 -2.45916 2 -55.6601 0.533324 2 
-54.2777 1.91578 2 -52.7816 3.41209 2 -51.2854 4.90839 2 
-49.7567 6.43723 2 -48.2605 7.93353 2 -46.8457 9.34852 2 
-45.3983 10.796 2 -43.9997 12.1947 2 -42.5361 13.6585 2 
-39.5273 13.7725 2 -37.9497 12.195 2 -36.5022 10.7476 2 
-35.0547 9.30026 2 -33.5909 7.83661 2 -32.1271 6.37297 2 
-30.7284 4.97437 2 -29.1996 3.44568 2 -27.752 1.9983 2 
-26.1907 0.437076 2 -69.5742 50.7416 0 -66.9742 50.7416 0 
-64.1792 50.7416 0 -61.6442 50.7416 0 -58.9142 50.7416 0 
-56.1842 50.7416 0 -53.1942 50.7416 0 -50.0742 50.7416 0 
-47.4092 50.7416 0 -44.8742 50.7416 0 -41.7542 50.7416 0 
-38.8942 50.7416 0 -36.0992 50.7416 0 -33.4342 50.7416 0 
-30.7692 50.7416 0 -27.8442 50.7416 0 -24.9842 50.7416 0 
-22.2542 50.7416 0 -19.3942 50.7416 0 -16.6642 50.7416 0 
-13.9992 50.7416 0 -11.3992 50.7416 0 -8.86415 50.7416 0 
-71.7842 -46.9585 0 -71.7842 -44.2584 0 -71.7842 -41.5584 0 
-71.7842 -38.9585 0 -71.7842 -35.8585 0 -71.7842 -33.1585 0 
-71.7842 -30.3584 0 -71.7842 -27.8584 0 -71.7842 -25.2584 0 
-71.7842 -22.1585 0 -71.7842 -19.4585 0 -71.7842 -16.6585 0 
-71.7842 -14.0584 0 -71.7842 -11.7585 0 -71.7842 -9.35845 0 
-71.7842 -6.65845 0 -71.7842 -3.95845 0 -71.7842 -1.15845 0 
-71.7842 1.54155 0 -71.7842 4.14155 0 -71.7842 6.74155 0 
-71.7842 9.34155 0 -71.7842 12.4416 0 -71.7842 15.1416 0 
-71.7842 17.7416 0 -71.7842 20.3415 0 -71.7842 23.1416 0 
-71.7842 25.8415 0 -71.7842 28.7416 0 -71.7842 31.3415 0 
-71.7842 33.6415 0 -71.7842 36.3415 0 -71.7842 38.9416 0 
-71.7842 41.2416 0 -71.7842 43.8415 0 -71.7842 46.3415 0 
-71.7842 48.7416 0 -6.78415 48.5415 0 -6.78415 45.8415 0 
-6.78415 43.2416 0 -6.78415 40.7416 0 -6.78415 37.8415 0 
-6.78415 35.2416 0 -6.78415 32.3415 0 -6.78415 29.8415 0 
-6.78415 26.9415 0 -6.78415 24.2416 0 -6.78415 21.6416 0 
-6.78415 18.7416 0 -6.78415 15.9416 0 -6.78415 13.3415 0 
-6.78415 10.7415 0 -6.78415 8.34155 0 -6.78415 5.74155 0 
-6.78415 3.14155 0 -6.78415 0.14155 0 -6.78415 -2.35845 0 
-6.78415 -5.25845 0 -6.78415 -8.05845 0 -6.78415 -10.7585 0 
-6.78415 -13.5584 0 -6.78415 -16.4585 0 -6.78415 -19.2584 0 
-6.78415 -22.0585 0 -6.78415 -24.8584 0 -6.78415 -27.5585 0 
-6.78415 -30.3584 0 -6.78415 -33.2584 0 -6.78415 -36.0584 0 
-6.78415 -38.7584 0 -6.78415 -41.4585 0 -6.78415 -44.2584 0 
-6.78415 -46.7584 0 -26.158 -2.49034 0 -27.7355 -4.06797 0 
-29.1992 -5.53175 0 -30.7441 -7.07685 0 -32.1752 -8.5081 0 
-33.6551 -9.98814 0 -35.1025 -11.4356 0 -36.5336 -12.8669 0 
-37.9648 -14.2981 0 -39.3959 -15.7294 0 -42.4371 -15.8434 0 
-43.8521 -14.4285 0 -45.3972 -12.8836 0 -46.8447 -11.4362 0 
-48.3248 -9.95627 0 -49.7886 -8.49263 0 -51.3174 -6.96393 0 
-52.8137 -5.46776 0 -54.3425 -3.93907 0 -55.8063 -2.47542 0 
-55.6601 0.533324 0 -54.0013 2.19227 0 -52.4238 3.7699 0 
-50.7975 5.39632 0 -49.1875 7.00647 0 -47.4799 8.71421 0 
-45.8699 10.3244 0 -44.0973 12.0972 0 -42.5198 13.6748 0 
-39.5761 13.8213 0 -38.1937 12.439 0 -36.7461 10.9916 0 
-35.2336 9.47915 0 -33.7373 7.98298 0 -32.2898 6.5356 0 
[...]
POINT_DATA 13529
FIELD FieldData 19
Displacement 3 13529 double
0 0 0 0 0 0 0 0 0 
0 0 0 -4.92353 28.9863 -0.300881 -4.92443 28.9846 -0.0546713 
3.99514 28.3921 -0.269887 3.9939 28.3902 -0.0236604 0.0670205 14.9622 -0.151637 
0.891251 13.2672 -0.11303 0.163479 13.2949 -0.130581 -0.738521 13.3576 -0.14053 
-0.00478396 14.978 -0.146185 -0.00513415 13.2953 -0.138183 0.896688 13.0686 -0.115692 
0.176617 11.3622 -0.11873 0.157656 13.0617 -0.137925 0.108378 11.3657 -0.117856 
-0.727368 13.1698 -0.139254 0.0114737 13.0693 -0.140712 0.0680225 14.9634 -0.0892987 
0.892501 13.2531 -0.0601622 0.150355 13.2937 -0.0731419 -0.733707 13.3561 -0.089497 
-0.00316073 14.9632 -0.0900368 -0.0032894 13.2978 -0.0780302 0.905895 13.0716 -0.0559745 
0.173825 11.3658 -0.0535553 0.169182 13.0642 -0.0618683 0.106608 11.3619 -0.0560524 
-0.733235 13.1569 -0.0830532 -0.00113745 13.0629 -0.0714945 0.965092 13.1656 -0.10278 
0.967437 13.1688 -0.0725537 0.0153176 15.2296 -0.239217 0.0150046 15.236 -0.00599741 
0.151663 11.0893 -0.187191 0.144983 11.0695 0.026758 -0.802554 13.2907 -0.131589 
-0.807462 13.2913 -0.101894 0.12294 13.6063 -0.161391 0.117391 13.8899 -0.164438 
0.108934 14.1612 -0.165204 0.098164 14.444 -0.167692 0.0812588 14.7029 -0.169858 
0.108983 14.9819 -0.142566 0.191332 14.8815 -0.146982 0.297846 14.7147 -0.143491 
0.425142 14.4865 -0.139305 0.572505 14.2167 -0.138929 0.728303 13.9119 -0.136081 
0.866821 13.5959 -0.139512 0.282753 13.2201 -0.101324 0.400751 13.2134 -0.0912085 
0.511203 13.2222 -0.0983173 0.625652 13.2223 -0.0921485 0.746601 13.2188 -0.0882089 
0.119425 13.6593 -0.0333153 0.109335 14.0333 -0.0392486 0.0953842 14.374 -0.0432704 
0.0800335 14.6877 -0.0530092 0.101881 14.9845 -0.103724 0.187643 14.8799 -0.0970634 
0.295607 14.708 -0.0884262 0.422417 14.4919 -0.0782621 0.557157 14.2389 -0.0725141 
0.713397 13.9374 -0.0640698 0.869467 13.5713 -0.0501466 0.290063 13.2127 -0.099025 
0.444217 13.2172 -0.0945573 0.597784 13.2186 -0.0904191 0.74337 13.218 -0.0848539 
-0.154235 13.2346 -0.114662 -0.299355 13.2579 -0.112957 -0.433859 13.2781 -0.112815 
-0.577523 13.2976 -0.116648 -0.0275307 15.0088 -0.13177 -0.0978188 14.9219 -0.135878 
-0.200246 14.7542 -0.138649 -0.316962 14.5441 -0.14259 -0.454966 14.2848 -0.148016 
-0.598323 13.9947 -0.149285 -0.727982 13.6834 -0.158267 0.0205696 13.6156 -0.166834 
0.0118741 13.8956 -0.167538 0.00507588 14.1868 -0.1684 0.000524119 14.4605 -0.169887 
-0.000148501 14.7256 -0.172575 -0.153408 13.2345 -0.107811 -0.295912 13.2562 -0.109121 
-0.431381 13.2746 -0.111683 -0.583946 13.2975 -0.111458 -0.0297633 15.0074 -0.0986701 
-0.102717 14.9151 -0.0923211 -0.202175 14.7551 -0.0858532 -0.318878 14.5454 -0.0834945 
-0.454711 14.2863 -0.0805302 -0.606122 13.9795 -0.0740239 -0.736782 13.6604 -0.0658472 
0.0180369 13.6253 -0.0372078 0.00846297 13.8945 -0.0414351 0.00236543 14.182 -0.0453467 
-0.00273468 14.4525 -0.0501385 -0.000982362 14.7269 -0.0538558 0.279658 13.144 -0.0867456 
0.394356 13.123 -0.0985863 0.513731 13.1251 -0.090204 0.647155 13.1217 -0.0886583 
0.765812 13.1245 -0.0862014 0.893724 12.7406 -0.134933 0.771494 12.4237 -0.126969 
0.636574 12.1305 -0.124419 0.50033 11.8578 -0.122495 0.381928 11.6321 -0.119506 
0.281883 11.4566 -0.114632 0.199896 11.3413 -0.105809 0.147324 12.7416 -0.162268 
0.162004 12.4571 -0.158506 0.170112 12.156 -0.154547 0.175753 11.8849 -0.150986 
0.173073 11.6077 -0.147899 0.306012 13.1281 -0.0994651 0.445142 13.1189 -0.0892726 
0.601597 13.1173 -0.0900342 0.74492 13.1161 -0.0853965 0.893943 12.7472 -0.0409868 
0.767661 12.4149 -0.0507562 0.61189 12.0865 -0.0556001 0.481171 11.8227 -0.0605213 
0.364147 11.6 -0.0645837 0.265654 11.4289 -0.0685941 0.198702 11.3387 -0.068697 
0.142717 12.757 -0.0325283 0.158317 12.4504 -0.0319137 0.168219 12.1628 -0.0295596 
0.173536 11.8702 -0.0269332 0.17723 11.6132 -0.029048 0.0456351 12.7615 -0.169255 
0.0542418 12.4602 -0.161553 0.0692627 12.1449 -0.157726 0.0814539 11.8628 -0.150735 
0.0994288 11.6075 -0.14793 -0.709906 12.8355 -0.149239 -0.57602 12.4941 -0.140939 
-0.415912 12.1721 -0.13129 -0.259508 11.8796 -0.126216 -0.127303 11.6428 -0.120892 
-0.00914083 11.4523 -0.115129 0.0733046 11.3458 -0.107013 -0.135828 13.1443 -0.107874 
-0.277731 13.1584 -0.108904 -0.426704 13.1758 -0.110234 -0.571027 13.1935 -0.11273 
0.0397534 12.7519 -0.0369545 0.0523313 12.4558 -0.0341827 0.065182 12.1579 -0.0309556 
0.0797154 11.8769 -0.0289384 0.0963179 11.6096 -0.0287569 -0.717254 12.834 -0.0539851 
-0.574287 12.4862 -0.0633878 -0.410423 12.16 -0.0629068 -0.252545 11.8621 -0.0637964 
-0.108511 11.609 -0.0651379 0.000122038 11.4346 -0.0679109 0.0791602 11.3384 -0.0737621 
-0.10935 13.1474 -0.1118 -0.222769 13.1549 -0.108348 -0.344726 13.1644 -0.105255 
-0.468333 13.1793 -0.110661 -0.590457 13.1991 -0.112802 0 0 0 
0 0 0 0 0 0 0 0 0 
0 0 0 0 0 0 0 0 0 
0 0 0 0 0 0 0 0 0 
0 0 0 0 0 0 0 0 0 
0 0 0 0 0 0 0 0 0 
0 0 0 0 0 0 0 0 0 
0 0 0 0 0 0 0 0 0 
0 0 0 0 0 0 0 0 0 
0 0 0 0 0 0 0 0 0 
0 0 0 0 0 0 0 0 0 
0 0 0 0 0 0 0 0 0 
0 0 0 0 0 0 0 0 0 
0 0 0 0 0 0 0 0 0 
0 0 0 0 0 0 0 0 0 
0 0 0 0 0 0 0 0 0 
0 0 0 0 0 0 0 0 0 
0 0 0 0 0 0 0 0 0 
0 0 0 3.73146 28.3564 -0.271205 3.48418 28.3209 -0.272302 
3.20356 28.2766 -0.273219 2.94375 28.2315 -0.273583 2.66247 28.1801 -0.27368 
2.37442 28.1263 -0.27354 2.09628 28.0756 -0.273334 1.78373 28.0221 -0.273009 
1.45303 27.9719 -0.272672 1.15158 27.9337 -0.272509 0.814629 27.901 -0.272385 
0.500956 27.8811 -0.272487 0.183218 27.8723 -0.272853 -0.126948 27.8751 -0.273584 
-0.468238 27.8915 -0.274602 -0.808596 27.9218 -0.275807 -1.12655 27.9625 -0.277341 
-1.47959 28.0214 -0.27937 -1.77844 28.0818 -0.281328 -2.09978 28.1566 -0.283515 
-2.45015 28.2486 -0.286106 -2.7288 28.3281 -0.288252 -3.02713 28.4178 -0.290536 
-3.30968 28.5058 -0.292665 -3.57779 28.5903 -0.294644 -3.84088 28.6728 -0.29639 
-4.10808 28.7546 -0.297927 -4.35659 28.828 -0.299055 -4.63589 28.9072 -0.300057 
0.996139 1.12826 -0.121187 1.59125 1.7994 -0.10803 2.07614 2.43887 -0.109678 
2.42471 2.97581 -0.115338 2.72219 3.51388 -0.120661 2.99285 4.10748 -0.125069 
3.17626 4.61515 -0.129536 3.3219 5.1402 -0.134275 3.42852 5.68546 -0.139365 
3.48672 6.15912 -0.143997 3.51642 6.65797 -0.148779 3.51544 7.20903 -0.153949 
3.48495 7.74302 -0.159258 3.42352 8.33646 -0.165301 3.35008 8.86755 -0.170839 
3.2674 9.38541 -0.176212 3.16758 9.97098 -0.182139 3.06525 10.5747 -0.188173 
2.97259 11.1691 -0.193999 2.88955 11.8104 -0.199819 2.8322 12.4378 -0.204359 
2.80175 13.1068 -0.208221 2.80601 13.8107 -0.211449 2.8438 14.4811 -0.213049 
2.91189 15.1727 -0.214041 2.99618 15.8224 -0.214904 3.08684 16.4317 -0.215959 
3.18617 17.0598 -0.217313 3.28034 17.6512 -0.218924 3.37438 18.2646 -0.221021 
3.45323 18.8187 -0.22333 3.5277 19.399 -0.225878 3.59834 20.0352 -0.228914 
3.65248 20.6186 -0.232024 3.69917 21.2343 -0.235516 3.74112 21.9415 -0.239762 
3.76898 22.5428 -0.243334 3.79179 23.1514 -0.246925 3.81311 23.8266 -0.250789 
3.83119 24.4508 -0.254221 3.84886 25.0517 -0.257347 3.87151 25.7495 -0.260717 
3.89585 26.3917 -0.263411 3.92584 27.068 -0.265942 3.95692 27.684 -0.267869 
-4.84915 28.3091 -0.298985 -4.77984 27.6624 -0.297065 -4.71379 27.0165 -0.294853 
-4.65132 26.3731 -0.292328 -4.59188 25.7333 -0.289545 -4.52635 25.008 -0.286164 
-4.46697 24.3492 -0.282964 -4.40104 23.6377 -0.279431 -4.34372 23.0503 -0.276474 
-4.27985 22.4387 -0.273429 -4.20762 21.8029 -0.27044 -4.12151 21.1138 -0.267324 
-4.03929 20.5133 -0.264785 -3.95062 19.9135 -0.262406 -3.8559 19.313 -0.260345 
-3.74166 18.6234 -0.258313 -3.63856 18.0152 -0.256685 -3.5351 17.401 -0.255112 
-3.43447 16.7795 -0.253639 -3.33641 16.1196 -0.251974 -3.25447 15.4813 -0.250102 
-3.18609 14.805 -0.247354 -3.14001 14.1235 -0.243816 -3.11947 13.4722 -0.239568 
-3.12433 12.7629 -0.233445 -3.15145 12.1239 -0.226775 -3.1937 11.5265 -0.21963 
-3.25596 10.8552 -0.210981 -3.31955 10.2581 -0.202603 -3.38951 9.62176 -0.193262 
-3.44774 9.05579 -0.18477 -3.49577 8.50295 -0.17619 -3.53051 7.93617 -0.167211 
-3.54459 7.40511 -0.158776 -3.53339 6.80754 -0.14937 -3.49603 6.29101 -0.141036 
-3.42961 5.77797 -0.132648 -3.32536 5.24201 -0.123633 -3.18097 4.70472 -0.114692 
-2.98134 4.13748 -0.105569 -2.73718 3.5851 -0.0963801 -2.44744 3.04177 -0.0865536 
-2.08993 2.47316 -0.0764369 -1.61918 1.83167 -0.0680212 -1.04875 1.18471 -0.0787136 
-0.773022 13.2191 -0.134074 -0.683111 13.0763 -0.142177 -0.516001 12.7735 -0.138951 
-0.360281 12.4521 -0.136185 -0.219057 12.1436 -0.133189 -0.0964073 11.8667 -0.129505 
0.00815536 11.6179 -0.124673 0.0785727 11.4214 -0.120505 0.0983499 11.2952 -0.117971 
0.10402 11.2448 -0.121481 0.18361 11.2393 -0.119269 0.183351 11.2821 -0.119305 
0.198855 11.4095 -0.120775 0.261028 11.6017 -0.123807 0.354324 11.842 -0.125749 
0.465268 12.11 -0.126903 0.587739 12.3946 -0.125783 0.730518 12.7125 -0.127713 
0.877384 12.9825 -0.120059 0.93737 13.1024 -0.113846 0.923397 13.2329 -0.112266 
0.841382 13.3681 -0.129895 0.679383 13.6458 -0.142612 0.52647 13.9617 -0.145305 
0.384228 14.2669 -0.148311 0.263818 14.5347 -0.150232 0.169693 14.7511 -0.154267 
0.100542 14.9242 -0.155639 0.0747852 15.028 -0.15122 0.0614854 15.0906 -0.164287 
-0.0155964 15.1015 -0.159755 -0.0151611 15.0624 -0.148208 -0.0282009 14.957 -0.148591 
-0.0887052 14.7866 -0.147086 -0.17401 14.5697 -0.151093 -0.285502 14.3151 -0.151819 
-0.407024 14.0431 -0.153628 -0.554625 13.7291 -0.154374 -0.701037 13.4697 -0.149522 
-0.776043 13.3444 -0.139733 3.72248 28.3535 -0.0248424 3.40303 28.307 -0.0264513 
3.05677 28.2499 -0.0287809 2.73639 28.1922 -0.0313565 2.38192 28.1262 -0.0344463 
2.01566 28.0598 -0.0377698 1.60007 27.9916 -0.0414627 1.15056 27.9319 -0.0451355 
0.75512 27.8947 -0.0479002 0.371282 27.8744 -0.0501582 -0.107873 27.8728 -0.0523549 
-0.549311 27.8956 -0.0536686 -0.978765 27.9403 -0.0543127 -1.38294 28.002 -0.0544958 
-1.77932 28.08 -0.0543178 -2.20303 28.1807 -0.0538053 -2.60459 28.29 -0.0531752 
-2.97583 28.4001 -0.0525981 -3.3528 28.5173 -0.0522099 -3.70251 28.6275 -0.0520538 
-4.03641 28.7309 -0.0522093 -4.35739 28.8263 -0.0527708 -4.66869 28.9142 -0.0537781 
1.00358 1.08238 0.212692 1.76302 1.99777 0.128638 2.29426 2.75488 0.0994405 
2.68513 3.43068 0.0821913 3.03263 4.19852 0.06808 3.24911 4.84917 0.0591347 
3.40167 5.51506 0.0515348 3.48312 6.10734 0.0460724 3.51892 6.72571 0.0414431 
3.50377 7.47142 0.0374649 3.44692 8.13396 0.035162 3.35365 8.83895 0.0339266 
3.24497 9.51436 0.0335717 3.13902 10.1312 0.0341505 3.0282 10.7967 0.035242 
2.91668 11.5728 0.0365553 2.83535 12.3754 0.0372092 2.79853 13.2266 0.0359048 
2.81521 14.0527 0.0322624 2.87508 14.8407 0.0269674 2.96658 15.6142 0.0208412 
3.07669 16.3714 0.0145955 3.21648 17.2548 0.00786885 3.33531 18.0115 0.00262767 
3.4406 18.7331 -0.00164411 3.53303 19.4518 -0.00508787 3.61613 20.2269 -0.00799332 
3.67992 20.9795 -0.0100692 3.7323 21.7971 -0.011731 3.76775 22.5407 -0.0128721 
3.79257 23.2078 -0.0137037 3.81711 24.0023 -0.0145515 3.83956 24.7787 -0.015429 
3.86107 25.4738 -0.0163714 3.88972 26.2673 -0.0177851 3.92315 27.0353 -0.0195359 
3.96071 27.7744 -0.0217428 -4.84999 28.3073 -0.0526317 -4.7614 27.4758 -0.0502242 
-4.68146 26.6772 -0.0484061 -4.60941 25.9138 -0.0469658 -4.52985 25.0362 -0.0455644 
-4.45961 24.258 -0.0443975 -4.37924 23.4002 -0.0431088 -4.30548 22.6692 -0.0418622 
-4.21186 21.8297 -0.0401068 -4.1148 21.0544 -0.0380354 -4.01126 20.3111 -0.0355152 
-3.88431 19.4824 -0.0320572 -3.75218 18.6785 -0.0279518 -3.62451 17.9253 -0.0233833 
-3.49699 17.1624 -0.0181849 -3.38494 16.4477 -0.0128231 -3.27717 15.6612 -0.006703 
-3.19199 14.8631 -0.000595756 -3.13225 13.9334 0.00565823 -3.11871 13.1587 0.0100844 
-3.1437 12.2707 0.0140917 -3.20153 11.4331 0.0172673 -3.27704 10.6494 0.0202896 
-3.36267 9.86326 0.0237183 -3.44526 9.07675 0.0280545 -3.50678 8.34116 0.0333845 
-3.54053 7.62526 0.0395859 -3.53754 6.92474 0.0469579 -3.4924 6.25938 0.0552747 
-3.39408 5.57529 0.0655639 -3.22857 4.86755 0.0777855 -2.99695 4.17795 0.0920398 
-2.69358 3.49782 0.10953 -2.29412 2.78867 0.132414 -1.74492 1.99292 0.168673 
-1.05604 1.16458 0.240513 -0.769335 13.2156 -0.0891651 -0.672883 13.0511 -0.0682122 
-0.51525 12.7707 -0.0602361 -0.350476 12.4274 -0.0563346 -0.211832 12.125 -0.0562268 
-0.0864166 11.8411 -0.0555208 0.0134718 11.6009 -0.0546641 0.0812733 11.4125 -0.0527382 
0.103279 11.2972 -0.0572627 0.106295 11.2378 -0.0456238 0.1792 11.2345 -0.0419104 
0.184755 11.2795 -0.0529362 0.191874 11.3902 -0.0498824 0.248027 11.5703 -0.0519927 
0.336728 11.8032 -0.0517376 0.446628 12.0714 -0.0500302 0.579409 12.3805 -0.0471314 
0.723432 12.6961 -0.0486546 0.866834 12.9718 -0.0518847 0.935806 13.1026 -0.0618487 
0.917618 13.2319 -0.0613393 0.809987 13.4011 -0.0593097 0.642907 13.7136 -0.0636645 
0.479436 14.055 -0.0699032 0.336186 14.3663 -0.0768522 0.207156 14.6538 -0.0826219 
0.118559 14.8718 -0.0874568 0.0751011 15.0284 -0.0899636 0.0626031 15.0783 -0.0938064 
-0.0198326 15.1042 -0.0909218 -0.0158916 15.0626 -0.0925464 -0.0252212 14.9734 -0.088264 
-0.0775032 14.8101 -0.0802938 -0.166716 14.5917 -0.0798153 -0.273205 14.3428 -0.0773159 
-0.401498 14.0538 -0.0755758 -0.555032 13.729 -0.0744768 -0.711305 13.4476 -0.0785068 
-0.787904 13.3365 -0.0977789 0.193907 13.6874 -0.184434 0.17809 14.0571 -0.188036 
0.169444 14.4451 -0.198385 0.418731 14.0096 -0.201384 0.558734 13.6538 -0.21024 
0.294974 13.5 -0.190357 0.695298 13.5169 -0.209383 0.282968 14.2813 -0.196448 
0.409715 13.568 -0.199339 0.286168 13.8548 -0.190679 0.209332 13.9657 -0.0087071 
0.176554 14.4012 -0.0121663 0.376799 14.0174 -0.00589853 0.504016 13.6736 0.0124127 
0.309029 13.6028 0.00266197 0.288474 14.3244 -0.00833166 0.669487 13.5069 0.0235466 
-0.217764 13.6176 -0.211262 -0.389469 13.7281 -0.213291 -0.067883 14.5098 -0.204715 
-0.167553 14.3587 -0.202666 -0.0302009 14.7363 -0.209397 -0.0678566 13.714 -0.196479 
-0.523226 13.5962 -0.224893 -0.281277 14.0829 -0.207072 -0.0578151 14.1178 -0.196983 
-0.150605 13.9785 -0.19988 -0.189601 13.6625 -0.00526241 -0.341916 13.6871 0.0043913 
-0.0407757 14.7015 -0.019855 -0.104658 14.502 -0.0172725 -0.199832 14.3894 -0.0147621 
-0.502865 13.66 -0.00318616 -0.0651909 13.7557 -0.0143088 -0.0462081 14.1152 -0.0205212 
-0.273054 14.0913 -0.00991906 -0.0329481 14.4034 -0.0228068 -0.135493 14.0543 -0.0148938 
0.287984 12.8234 -0.191328 0.419628 12.761 -0.18779 0.588311 12.672 -0.200061 
0.46569 12.3242 -0.18832 0.356091 12.0468 -0.18313 0.267233 11.849 -0.182104 
0.22063 12.5592 -0.184624 0.724032 12.8237 -0.205884 0.213904 11.6933 -0.18092 
0.236498 12.2406 -0.181609 0.326878 12.4607 -0.184712 0.323039 12.6241 0.00364589 
0.570756 12.6663 0.0254331 0.337999 12.0842 0.00759615 0.236463 11.8671 0.00426071 
0.214758 12.746 -0.00511963 0.701395 12.8346 0.0219801 0.206694 11.6128 0.00720703 
0.451659 12.389 0.00332853 0.228419 12.2954 -0.00159449 -0.0408099 12.6289 -0.191355 
0.00308644 12.2534 -0.189329 -0.00311524 11.8819 -0.194568 -0.518912 12.8917 -0.226013 
-0.35832 12.7041 -0.212673 -0.259488 12.3336 -0.206705 -0.177377 12.7232 -0.207829 
-0.11341 12.1729 -0.19552 -0.0162312 12.5622 -0.0127648 -0.00644264 12.2274 -0.0101609 
0.00884813 11.8552 -0.000562657 -0.483057 12.8774 -0.00117741 -0.370075 12.6392 0.0116687 
-0.235792 12.3265 -0.00351558 -0.105458 12.028 -0.00239893 -0.097229 12.8384 -0.0137426 
-0.224418 12.7828 -0.00221764 0.0611598 11.6015 -0.000358048 -0.110302 12.4594 -0.00927764 
3.62093 27.8025 -0.269585 3.3484 27.7321 -0.270387 3.06095 27.6763 -0.271055 
2.78481 27.6178 -0.271474 2.49306 27.5681 -0.271785 2.20487 27.5033 -0.271887 
1.89743 27.4419 -0.271946 1.58027 27.3683 -0.271947 1.28026 27.332 -0.272045 
0.967302 27.2913 -0.272207 0.646064 27.2674 -0.272509 0.343088 27.2556 -0.272914 
0.0246717 27.2417 -0.273603 -0.296853 27.2436 -0.27453 -0.618927 27.2692 -0.27558 
-0.942678 27.3133 -0.276878 -1.26713 27.3624 -0.278467 -1.57542 27.4251 -0.280129 
-1.8955 27.5 -0.282028 -2.21712 27.5811 -0.284051 -2.51208 27.6716 -0.286007 
-2.80765 27.7541 -0.287981 -3.10176 27.857 -0.289949 -3.37195 27.9428 -0.291712 
-3.6491 28.061 -0.293522 -3.92095 28.1663 -0.295115 -4.18312 28.263 -0.296507 
-4.4396 28.3574 -0.297707 -4.68301 28.4779 -0.298872 1.14745 1.15873 -0.129947 
1.6114 1.76878 -0.127163 2.01713 2.3786 -0.126294 2.35304 2.97318 -0.12829 
2.64441 3.58677 -0.131278 2.86833 4.17307 -0.134812 3.04454 4.74998 -0.138505 
3.17696 5.3254 -0.142796 3.25196 5.85654 -0.147155 3.29406 6.40983 -0.15187 
3.31515 6.93831 -0.156055 3.30211 7.50131 -0.160836 3.25675 8.06901 -0.165826 
3.17791 8.65446 -0.171093 3.09038 9.21694 -0.176017 3.00089 9.76672 -0.180679 
2.89841 10.3491 -0.185559 2.79614 10.9479 -0.190343 2.69464 11.5797 -0.195033 
2.61422 12.2066 -0.199144 2.56383 12.8211 -0.202412 2.55292 13.4634 -0.205763 
2.58205 14.1092 -0.208636 2.63911 14.7735 -0.211051 2.71832 15.4339 -0.21327 
2.81182 16.0609 -0.215412 2.91203 16.6658 -0.217538 3.00981 17.2795 -0.219873 
3.10526 17.8871 -0.222331 3.18941 18.4631 -0.224833 3.27021 19.0595 -0.227587 
3.34155 19.6777 -0.23053 3.39736 20.2861 -0.233652 3.44527 20.9005 -0.236855 
3.48059 21.5796 -0.240607 3.5174 22.2171 -0.243999 3.54699 22.8408 -0.247252 
3.56919 23.4693 -0.250533 3.58253 24.1357 -0.253951 3.59594 24.7893 -0.257129 
3.61732 25.4212 -0.259993 3.6446 26.0934 -0.262844 3.68604 26.7235 -0.265237 
3.73832 27.3048 -0.267297 -4.56532 27.865 -0.296676 -4.53656 27.2029 -0.294565 
-4.46025 26.5565 -0.292105 -4.39619 25.899 -0.289453 -4.33664 25.2444 -0.28666 
-4.2742 24.5602 -0.28361 -4.20411 23.8704 -0.280445 -4.14294 23.2492 -0.277566 
-4.08405 22.6151 -0.274632 -4.00962 21.9452 -0.271572 -3.92795 21.2808 -0.268658 
-3.84993 20.6641 -0.266022 -3.76317 20.0355 -0.263429 -3.67715 19.4444 -0.261184 
-3.56839 18.809 -0.25892 -3.45588 18.1435 -0.256685 -3.35285 17.5509 -0.254684 
-3.25237 16.9424 -0.252632 -3.15545 16.3027 -0.25041 -3.07029 15.6676 -0.247967 
-2.98653 14.9862 -0.244828 -2.92635 14.3334 -0.241063 -2.90038 13.7137 -0.237165 
-2.8918 13.0336 -0.231771 -2.91429 12.4079 -0.22618 -2.95798 11.7818 -0.219761 
-3.01553 11.1373 -0.212496 -3.08631 10.515 -0.205032 -3.16309 9.91606 -0.197425 
-3.23388 9.32004 -0.18948 -3.29008 8.733 -0.181543 -3.32921 8.148 -0.173463 
-3.35033 7.59294 -0.165803 -3.34952 7.00759 -0.157699 -3.32737 6.46422 -0.150105 
-3.26623 5.90303 -0.14262 -3.17415 5.33506 -0.134912 -3.04103 4.75815 -0.127457 
-2.87122 4.19657 -0.120314 -2.64613 3.60439 -0.113273 -2.34774 2.98254 -0.107283 
-1.99088 2.35494 -0.102791 -1.55797 1.70407 -0.100242 -0.986782 0.968138 -0.116555 
-0.459744 0.431849 -0.148609 -0.460374 0.462775 -0.161753 -0.412162 0.462573 -0.169289 
-0.358572 0.452317 -0.17057 -0.317416 0.454334 -0.16975 -0.273714 0.449055 -0.164122 
-0.26284 0.469279 -0.170419 -0.22824 0.470608 -0.173013 -0.193796 0.479723 -0.172714 
-0.14901 0.462139 -0.173148 -0.112906 0.470527 -0.172844 -0.0965946 0.482841 -0.175904 
-0.0582574 0.47984 -0.176883 -0.01944 0.477421 -0.177395 0.0184842 0.473723 -0.174543 
0.0617895 0.481218 -0.161087 0.0908244 0.494573 -0.147665 0.117573 0.480947 -0.148174 
0.145586 0.477863 -0.155166 0.190925 0.478214 -0.168629 0.228477 0.467158 -0.170411 
0.266177 0.453899 -0.159178 0.290442 0.4642 -0.151496 0.312382 0.445252 -0.156034 
0.349175 0.434683 -0.166448 0.398414 0.439964 -0.169537 0.46375 0.456529 -0.158568 
0.528614 0.488705 -0.151465 -1.02258 12.8983 -0.194268 -0.958001 12.6603 -0.211126 
-0.832169 12.4248 -0.216893 -0.683035 12.106 -0.212368 -0.54485 11.7827 -0.212523 
-0.429512 11.4649 -0.21021 -0.340331 11.16 -0.211874 -0.27859 10.8615 -0.215444 
-0.246801 10.6436 -0.219235 -0.215708 10.5059 -0.237781 -0.164605 10.3887 -0.262446 
0.490988 10.2218 -0.273635 0.555328 10.3918 -0.246122 0.562492 10.5661 -0.225308 
0.578663 10.8157 -0.208112 0.628703 11.1183 -0.201841 0.716303 11.4145 -0.20026 
0.81532 11.713 -0.202029 0.942156 12.0279 -0.201405 1.06955 12.3126 -0.201329 
1.16552 12.534 -0.190379 1.217 12.7727 -0.172386 1.19579 13.6125 -0.178865 
1.14592 13.857 -0.19954 1.03923 14.0912 -0.216282 0.897231 14.3925 -0.22148 
0.753657 14.698 -0.224833 0.63147 14.9918 -0.228587 0.531963 15.26 -0.234074 