# vtk DataFile Version 4.2
vtk output
ASCII
DATASET UNSTRUCTURED_GRID
POINTS 9350 float
-22.3239 -47.9527 2 -22.3239 -47.9527 0 -82.3239 -47.9527 2 
-82.3239 -47.9527 0 -22.3239 52.0473 2 -22.3239 52.0473 0 
-82.3239 52.0473 2 -82.3239 52.0473 0 -32.0878 -7.10543e-15 2 
-32.0878 -7.10543e-15 0 -30.0878 -7.10543e-15 2 -30.0878 -7.10543e-15 0 
-43.4958 21.2838 2 -43.4958 21.2838 0 -45.4958 21.2838 2 
-45.4958 21.2838 0 -24.4239 -47.9527 0 -26.6439 -47.9527 0 
-29.1039 -47.9527 0 -31.6239 -47.9527 0 -34.3839 -47.9527 0 
-37.0239 -47.9527 0 -39.7839 -47.9527 0 -42.5439 -47.9527 0 
-45.3639 -47.9527 0 -48.0039 -47.9527 0 -50.7039 -47.9527 0 
-53.2239 -47.9527 0 -56.3439 -47.9527 0 -58.9839 -47.9527 0 
-61.6239 -47.9527 0 -64.2639 -47.9527 0 -66.9039 -47.9527 0 
-69.5439 -47.9527 0 -72.1839 -47.9527 0 -74.9439 -47.9527 0 
-77.8239 -47.9527 0 -80.2839 -47.9527 0 -24.4239 -47.9527 2 
-26.7639 -47.9527 2 -28.8639 -47.9527 2 -31.0839 -47.9527 2 
-33.3639 -47.9527 2 -35.4639 -47.9527 2 -37.8639 -47.9527 2 
-39.9039 -47.9527 2 -42.1839 -47.9527 2 -44.6439 -47.9527 2 
-46.7439 -47.9527 2 -49.0239 -47.9527 2 -51.1839 -47.9527 2 
-53.2839 -47.9527 2 -55.3839 -47.9527 2 -57.6039 -47.9527 2 
-59.8839 -47.9527 2 -61.9839 -47.9527 2 -64.3239 -47.9527 2 
-66.4239 -47.9527 2 -68.6439 -47.9527 2 -70.8639 -47.9527 2 
-73.0239 -47.9527 2 -75.4239 -47.9527 2 -77.6439 -47.9527 2 
-79.9239 -47.9527 2 -79.9239 52.0473 2 -77.8239 52.0473 2 
-75.6639 52.0473 2 -73.4439 52.0473 2 -71.4039 52.0473 2 
-69.3639 52.0473 2 -67.2039 52.0473 2 -65.0439 52.0473 2 
-62.9439 52.0473 2 -60.9039 52.0473 2 -58.8639 52.0473 2 
-56.5239 52.0473 2 -54.5439 52.0473 2 -52.3239 52.0473 2 
-50.1639 52.0473 2 -48.0639 52.0473 2 -45.7839 52.0473 2 
-43.8039 52.0473 2 -41.5839 52.0473 2 -39.1839 52.0473 2 
-37.1439 52.0473 2 -34.9239 52.0473 2 -32.8239 52.0473 2 
-30.6639 52.0473 2 -28.6239 52.0473 2 -26.5239 52.0473 2 
-24.3039 52.0473 2 -82.3239 -45.6527 2 -82.3239 -43.3527 2 
-82.3239 -41.1527 2 -82.3239 -39.0527 2 -82.3239 -36.7527 2 
-82.3239 -34.5527 2 -82.3239 -32.2527 2 -82.3239 -30.1527 2 
-82.3239 -28.1527 2 -82.3239 -25.8527 2 -82.3239 -23.6527 2 
-82.3239 -21.5527 2 -82.3239 -19.4527 2 -82.3239 -17.3527 2 
-82.3239 -15.2527 2 -82.3239 -13.1527 2 -82.3239 -10.8527 2 
-82.3239 -8.75269 2 -82.3239 -6.65269 2 -82.3239 -4.45269 2 
-82.3239 -2.25269 2 -82.3239 -0.152694 2 -82.3239 2.14731 2 
-82.3239 4.24731 2 -82.3239 6.34731 2 -82.3239 8.74731 2 
-82.3239 10.9473 2 -82.3239 13.3473 2 -82.3239 15.3473 2 
-82.3239 17.5473 2 -82.3239 19.7473 2 -82.3239 22.1473 2 
-82.3239 24.2473 2 -82.3239 26.3473 2 -82.3239 28.4473 2 
-82.3239 30.8473 2 -82.3239 32.8473 2 -82.3239 34.9473 2 
-82.3239 37.1473 2 -82.3239 39.2473 2 -82.3239 41.2473 2 
-82.3239 43.4473 2 -82.3239 45.6473 2 -82.3239 47.8473 2 
-82.3239 49.8473 2 -22.3239 49.7473 2 -22.3239 46.5473 2 
-22.3239 43.1473 2 -22.3239 39.1473 2 -22.3239 34.4473 2 
-22.3239 29.2473 2 -22.3239 23.9473 2 -22.3239 19.2473 2 
-22.3239 14.3473 2 -22.3239 9.74731 2 -22.3239 5.44731 2 
-22.3239 1.54731 2 -22.3239 -1.75269 2 -22.3239 -5.55269 2 
-22.3239 -9.05269 2 -22.3239 -12.9527 2 -22.3239 -17.9527 2 
-22.3239 -23.2527 2 -22.3239 -28.2527 2 -22.3239 -32.7527 2 
-22.3239 -36.8527 2 -22.3239 -39.9527 2 -22.3239 -42.8527 2 
-22.3239 -45.5527 2 -42.8522 19.1592 2 -42.1653 17.2368 2 
-41.3478 15.2554 2 -40.3762 13.2027 2 -39.3493 11.2922 2 
-38.2969 9.54293 2 -37.0606 7.69903 2 -35.8578 6.08132 2 
-34.5313 4.46305 2 -33.1461 2.92902 2 -31.7079 1.48025 2 
-44.9238 19.3774 2 -44.1927 17.3083 2 -43.4094 15.3955 2 
-42.4336 13.3166 2 -41.4875 11.5365 2 -40.3651 9.65079 2 
-39.1489 7.82414 2 -37.9674 6.22239 2 -36.631 4.57928 2 
-35.1285 2.91049 2 -33.6895 1.46257 2 -80.1639 52.0473 0 
-77.6439 52.0473 0 -74.9439 52.0473 0 -72.1239 52.0473 0 
-69.4839 52.0473 0 -66.7239 52.0473 0 -63.9639 52.0473 0 
-61.3839 52.0473 0 -58.9839 52.0473 0 -56.2839 52.0473 0 
-53.6439 52.0473 0 -50.7639 52.0473 0 -48.0639 52.0473 0 
-45.1839 52.0473 0 -42.6639 52.0473 0 -39.9039 52.0473 0 
-37.2639 52.0473 0 -34.5039 52.0473 0 -31.8039 52.0473 0 
-29.1639 52.0473 0 -26.6439 52.0473 0 -24.3639 52.0473 0 
-82.3239 -45.6527 0 -82.3239 -42.9527 0 -82.3239 -40.2527 0 
-82.3239 -37.5527 0 -82.3239 -34.7527 0 -82.3239 -31.8527 0 
-82.3239 -29.3527 0 -82.3239 -26.7527 0 -82.3239 -23.7527 0 
-82.3239 -21.2527 0 -82.3239 -18.6527 0 -82.3239 -15.9527 0 
-82.3239 -13.2527 0 -82.3239 -10.4527 0 -82.3239 -7.75269 0 
-82.3239 -5.05269 0 -82.3239 -2.15269 0 -82.3239 0.647306 0 
-82.3239 3.34731 0 -82.3239 5.94731 0 -82.3239 8.64731 0 
-82.3239 11.2473 0 -82.3239 14.1473 0 -82.3239 17.0473 0 
-82.3239 19.9473 0 -82.3239 22.7473 0 -82.3239 25.3473 0 
-82.3239 28.1473 0 -82.3239 31.0473 0 -82.3239 33.6473 0 
-82.3239 36.7473 0 -82.3239 39.5473 0 -82.3239 42.2473 0 
-82.3239 44.8473 0 -82.3239 47.5473 0 -82.3239 49.9473 0 
-22.3239 49.8473 0 -22.3239 47.5473 0 -22.3239 44.5473 0 
-22.3239 41.0473 0 -22.3239 37.1473 0 -22.3239 32.8473 0 
-22.3239 28.0473 0 -22.3239 22.4473 0 -22.3239 17.4473 0 
-22.3239 12.9473 0 -22.3239 8.84731 0 -22.3239 4.74731 0 
-22.3239 1.24731 0 -22.3239 -2.05269 0 -22.3239 -5.75269 0 
-22.3239 -10.0527 0 -22.3239 -14.9527 0 -22.3239 -19.6527 0 
-22.3239 -25.0527 0 -22.3239 -29.8527 0 -22.3239 -33.6527 0 
-22.3239 -37.0527 0 -22.3239 -40.2527 0 -22.3239 -43.0527 0 
-22.3239 -45.6527 0 -42.8762 19.2319 0 -42.2199 17.3798 0 
-41.4196 15.4189 0 -40.5587 13.5679 0 -39.5125 11.581 0 
-38.4059 9.71561 0 -37.2513 7.9705 0 -35.9518 6.20221 0 
-34.4646 4.38576 0 -33.0406 2.81803 0 -31.6157 1.39196 0 
-44.8841 19.2561 0 -44.0916 17.0464 0 -43.2021 14.9291 0 
-42.33 13.1116 0 -41.3619 11.3143 0 -40.2833 9.52138 0 
-39.1929 7.88682 0 -37.9518 6.20221 0 -36.6476 4.59868 0 
-35.321 3.11481 0 -33.7447 1.51564 0 -79.2701 50.2354 2 
-77.0119 50.2981 2 -74.6844 50.3012 2 -72.626 50.1606 2 
-70.4754 50.086 2 -68.3809 50.0867 2 -66.1617 50.0499 2 
-64.0531 50.0035 2 -61.8785 49.9791 2 -59.7945 50.0148 2 
-57.6717 50.0151 2 -55.5576 50.0077 2 -53.4369 49.9989 2 
-51.2145 50.006 2 -49.0894 50.0253 2 -46.8577 50.0354 2 
-44.7974 50.0405 2 -42.5905 50.08 2 -40.3676 50.1077 2 
-38.2334 50.1283 2 -36.0074 50.1408 2 -33.8424 50.1607 2 
-31.7273 50.196 2 -29.6391 50.1874 2 -27.5663 50.0131 2 
-25.3676 49.7674 2 -80.3997 -44.8341 2 -80.4395 -42.3362 2 
-80.3503 -40.1661 2 -80.364 -37.9048 2 -80.354 -35.7647 2 
-80.3592 -33.5417 2 -80.284 -31.2653 2 -80.2052 -29.1067 2 
-80.2763 -27.0605 2 -80.2683 -24.8507 2 -80.2221 -22.6247 2 
-80.2402 -20.4938 2 -80.2439 -18.4343 2 -80.248 -16.2824 2 
-80.2616 -14.2115 2 -80.3214 -11.9936 2 -80.2925 -9.85254 2 
-80.298 -7.71506 2 -80.2821 -5.49834 2 -80.2491 -3.3069 2 
-80.2407 -1.21372 2 -80.2801 1.02334 2 -80.2399 3.16532 2 
-80.1901 5.3909 2 -80.1942 7.62254 2 -80.2208 9.86529 2 
-80.2255 12.101 2 -80.1987 14.3015 2 -80.2646 16.5082 2 
-80.2764 18.6831 2 -80.2967 20.8234 2 -80.2904 23.0635 2 
-80.2921 25.2187 2 -80.368 27.4182 2 -80.3859 29.5862 2 
-80.3092 31.8065 2 -80.2859 34.0131 2 -80.3231 36.0357 2 
-80.3785 38.166 2 -80.3811 40.2417 2 -80.4182 42.4079 2 
-80.4281 44.6079 2 -80.4119 46.668 2 -80.518 48.6118 2 
-25.0116 44.6031 2 -25.4329 40.889 2 -25.6063 36.3546 2 
-25.8401 31.225 2 -26.0864 26.1512 2 -26.0747 21.5543 2 
-26.0639 16.4133 2 -25.8927 11.9857 2 -25.6883 7.35409 2 
-25.5208 3.33845 2 -25.2554 -0.240971 2 -25.1592 -3.69745 2 
-25.1164 -7.35086 2 -25.373 -11.0869 2 -25.7569 -15.5808 2 
-25.9382 -20.2828 2 -25.9605 -25.2883 2 -25.882 -29.9386 2 
-25.7706 -34.1788 2 -25.8666 -38.2613 2 -24.7439 -41.5134 2 
-24.2213 -43.9319 2 -25.2983 -45.8868 2 -27.7614 -45.8984 2 
-30.0035 -45.9539 2 -32.3443 -46.0254 2 -34.5551 -45.9896 2 
-36.7507 -45.9713 2 -39.0487 -45.9926 2 -41.2965 -45.9989 2 
-43.6168 -45.9831 2 -45.7762 -45.9264 2 -48.0208 -45.9073 2 
-50.2751 -45.9072 2 -52.3754 -45.8819 2 -54.5744 -45.8639 2 
-56.6922 -45.8629 2 -58.951 -45.8926 2 -61.189 -45.9107 2 
-63.4423 -45.9359 2 -65.6332 -45.9281 2 -67.9285 -45.9147 2 
-70.0867 -45.9935 2 -72.2832 -46.0833 2 -74.2341 -46.4435 2 
-76.2451 -46.2153 2 -78.3741 -45.9078 2 -44.6592 23.8633 2 
-41.1695 21.294 2 -40.5592 19.0602 2 -39.9776 17.0798 2 
-39.0125 15.0603 2 -37.9307 13.2435 2 -36.9795 11.4511 2 
-35.9768 9.61901 2 -34.7852 7.8651 2 -33.3849 6.26402 2 
-31.8267 4.55621 2 -30.3653 2.70839 2 -30.8165 -2.34904 2 
-47.3595 19.8123 2 -46.5931 17.696 2 -45.718 15.6651 2 
-44.759 13.5209 2 -43.7522 11.5992 2 -42.6501 9.65548 2 
-41.4039 7.70451 2 -40.1383 5.95766 2 -38.9299 4.24388 2 
-37.467 2.51139 2 -35.9296 0.82909 2 -34.4672 -0.900617 2 
-24.4445 47.5517 2 -47.3575 23.9448 2 -41.9082 23.7456 2 
-27.9849 1.4342 2 -28.0269 -2.03957 2 -48.5643 21.9325 2 
-33.1166 -2.8723 2 -75.9849 48.6714 2 -73.8326 48.3098 2 
-71.7411 48.1335 2 -69.6029 48.0215 2 -67.3611 47.9085 2 
-65.1514 47.9127 2 -62.9194 47.9054 2 -60.7952 47.8708 2 
-58.683 47.9145 2 -56.5834 47.9582 2 -54.5029 47.9749 2 
-52.3314 47.8942 2 -50.1842 47.9253 2 -47.9424 47.9173 2 
-45.7986 47.9854 2 -43.7097 47.9868 2 -41.3729 47.9632 2 
-39.2354 47.9319 2 -37.109 48.043 2 -34.8058 48.1228 2 
-32.7102 48.2201 2 -30.6968 48.2361 2 -28.8039 48.2788 2 
-28.2186 42.9546 2 -78.3241 -41.3124 2 -78.2468 -39.0421 2 
-78.2848 -36.8732 2 -78.2539 -34.7739 2 -78.1813 -32.4732 2 
-78.1199 -30.2163 2 -78.0886 -28.0825 2 -78.0424 -25.9967 2 
-78.0356 -23.7979 2 -78.1022 -21.5499 2 -78.0803 -19.501 2 
-78.0634 -17.4141 2 -78.0957 -15.3157 2 -78.1188 -13.0981 2 
-78.1194 -10.8555 2 -78.0679 -8.80182 2 -78.0448 -6.60663 2 
-78.1054 -4.41238 2 -78.0786 -2.23638 2 -78.0878 -0.114572 2 
-78.0853 2.17612 2 -78.0525 4.30461 2 -78.0599 6.513 2 
-78.1051 8.80019 2 -78.0544 10.967 2 -78.0388 13.2241 2 
-78.0444 15.3522 2 -78.0704 17.6187 2 -78.1392 19.7534 2 
-78.2163 21.9022 2 -78.2767 24.0748 2 -78.2972 26.271 2 
-78.2858 28.4926 2 -78.1839 30.7061 2 -78.1307 32.9081 2 
-78.1327 35.0735 2 -78.1517 37.0838 2 -78.2781 39.2429 2 
-78.4114 41.3685 2 -78.5353 43.5289 2 -78.4322 45.7439 2 
[...]
POINT_DATA 9350
FIELD FieldData 19
Displacement 3 9350 double
0 0 0 0 0 0 0 0 0 
0 0 0 -2.80424 31.9619 -0.244233 -2.80101 31.9591 0.0225057 
5.52412 33.1234 -0.35288 5.52747 33.1193 -0.0862008 -3.10419 16.0837 -0.111257 
-3.0877 16.0792 0.0137125 -3.13287 15.6628 -0.110219 -3.12694 15.6608 0.0226696 
-0.011949 20.8066 -0.139916 0.0168252 20.7806 -0.013777 0.136037 21.0788 -0.174931 
0.122647 21.0604 0.00362659 0 0 0 0 0 0 
0 0 0 0 0 0 0 0 0 
0 0 0 0 0 0 0 0 0 
0 0 0 0 0 0 0 0 0 
0 0 0 0 0 0 0 0 0 
0 0 0 0 0 0 0 0 0 
0 0 0 0 0 0 0 0 0 
0 0 0 0 0 0 0 0 0 
0 0 0 0 0 0 0 0 0 
0 0 0 0 0 0 0 0 0 
0 0 0 0 0 0 0 0 0 
0 0 0 0 0 0 0 0 0 
0 0 0 0 0 0 0 0 0 
0 0 0 0 0 0 0 0 0 
0 0 0 0 0 0 0 0 0 
0 0 0 0 0 0 0 0 0 
0 0 0 5.20419 33.0524 -0.348881 4.92432 32.9899 -0.345351 
4.63628 32.9249 -0.341647 4.33971 32.8573 -0.337715 4.06641 32.7944 -0.333998 
3.79203 32.7308 -0.330148 3.50001 32.6629 -0.325943 3.20598 32.5949 -0.321613 
2.91784 32.5289 -0.317239 2.63543 32.4655 -0.312824 2.35025 32.4035 -0.30832 
2.01953 32.3351 -0.303062 1.73664 32.2805 -0.298555 1.41638 32.2238 -0.293533 
1.10218 32.1744 -0.288807 0.794962 32.1326 -0.284343 0.460599 32.0948 -0.279765 
0.170676 32.0685 -0.275961 -0.152763 32.0458 -0.272098 -0.499093 32.0286 -0.268345 
-0.789883 32.0185 -0.265346 -1.10202 32.0109 -0.262261 -1.39295 32.0055 -0.259468 
-1.68807 32 -0.256603 -1.96351 31.9936 -0.253757 -2.24448 31.9851 -0.250773 
-2.54043 31.9735 -0.247362 1.07409 1.23231 -0.0864647 1.73585 2.07148 -0.0694809 
2.1996 2.80285 -0.0768989 2.54807 3.46214 -0.0878928 2.85639 4.16442 -0.0992207 
3.09538 4.82696 -0.109598 3.29926 5.51647 -0.119423 3.45126 6.14658 -0.128474 
3.57125 6.74935 -0.1368 3.68451 7.44722 -0.146045 3.77243 8.12043 -0.154599 
3.84113 8.76862 -0.162473 3.89773 9.42266 -0.170036 3.94456 10.0825 -0.177369 
3.98367 10.7481 -0.184483 4.01688 11.4194 -0.191391 4.04836 12.1607 -0.198781 
4.07415 12.8429 -0.205386 4.09848 13.5299 -0.211811 4.12361 14.2543 -0.218394 
4.14954 14.983 -0.224803 4.17586 15.682 -0.230858 4.20746 16.451 -0.237313 
4.23946 17.1556 -0.243073 4.27493 17.8619 -0.248696 4.32011 18.6704 -0.254951 
4.36596 19.4121 -0.260581 4.42071 20.221 -0.266621 4.46989 20.8944 -0.271502 
4.52724 21.634 -0.276765 4.5874 22.372 -0.28195 4.65545 23.1751 -0.287527 
4.71639 23.8761 -0.292344 4.77801 24.5757 -0.297132 4.83982 25.2741 -0.301917 
4.91026 26.0713 -0.307344 4.96856 26.7351 -0.311824 5.02928 27.432 -0.316532 
5.09242 28.1623 -0.321436 5.1524 28.8599 -0.32608 5.20947 29.5249 -0.330447 
5.27247 30.2571 -0.335186 5.33597 30.9899 -0.339838 5.40015 31.7232 -0.344378 
5.45905 32.39 -0.348436 -2.81796 31.1949 -0.241116 -2.84054 30.1285 -0.236523 
-2.87012 29.0006 -0.231127 -2.90768 27.6854 -0.224454 -2.94518 26.1579 -0.216502 
-2.96552 24.4828 -0.209247 -2.97119 22.7675 -0.202842 -3.00112 21.2245 -0.199284 
-3.11432 19.6045 -0.193619 -3.32437 18.1084 -0.184152 -3.59562 16.7663 -0.174721 
-3.86406 15.6133 -0.166748 -4.05012 14.6855 -0.161246 -4.14281 13.6257 -0.161376 
-4.13427 12.6046 -0.161954 -4.07747 11.419 -0.159061 -3.96997 9.8717 -0.152002 
-3.80777 8.23746 -0.143608 -3.57692 6.71704 -0.136643 -3.26423 5.36439 -0.132901 
-2.84728 4.13194 -0.134286 -2.40702 3.17255 -0.143675 -1.8472 2.2334 -0.167802 
-1.09198 1.2281 -0.242241 -0.151137 20.4491 -0.134678 -0.349003 20.1079 -0.138798 
-0.577056 19.7145 -0.138975 -0.84391 19.2652 -0.133947 -1.11562 18.8155 -0.131533 
-1.38598 18.3763 -0.126064 -1.68632 17.8869 -0.121328 -1.97023 17.4341 -0.112277 
-2.2686 16.9624 -0.103684 -2.55971 16.5083 -0.100217 -2.84785 16.0883 -0.0820325 
-0.0821192 20.7624 -0.124633 -0.284537 20.4617 -0.133413 -0.506285 20.1374 -0.135291 
-0.780839 19.7373 -0.132826 -1.04293 19.3536 -0.132801 -1.34123 18.9113 -0.12956 
-1.64889 18.4479 -0.122159 -1.93592 18.0116 -0.11723 -2.24037 17.5349 -0.111704 
-2.56077 17.0244 -0.104394 -2.84405 16.5581 -0.101405 5.23954 33.0554 -0.0825839 
4.90369 32.9805 -0.0783442 4.54358 32.8991 -0.0738546 4.16644 32.8127 -0.0691907 
3.81174 32.7307 -0.0648457 3.43845 32.644 -0.060305 3.0618 32.5572 -0.0557872 
2.7059 32.4767 -0.0515626 2.37094 32.4036 -0.0475878 1.9893 32.3249 -0.0430372 
1.61115 32.2535 -0.0385129 1.19363 32.1842 -0.0333529 0.798914 32.1294 -0.0282711 
0.376634 32.0831 -0.0225107 0.00813321 32.0529 -0.0172418 -0.391948 32.0301 -0.0112975 
-0.769271 32.0161 -0.00559109 -1.15708 32.0069 0.000288351 -1.52947 32.0001 0.0058929 
-1.88758 31.9927 0.011063 -2.22545 31.983 0.0156545 -2.52923 31.9711 0.0193104 
1.05364 1.1853 0.274511 1.82515 2.19634 0.200641 2.34933 3.07514 0.169062 
2.75039 3.91126 0.147779 3.07128 4.7578 0.131618 3.32711 5.62812 0.118507 
3.49939 6.37987 0.109092 3.64127 7.16659 0.100483 3.76772 8.08325 0.091611 
3.8494 8.85564 0.0847903 3.91647 9.66751 0.0782712 3.97159 10.52 0.0718307 
4.01591 11.3818 0.0656297 4.05429 12.285 0.0592567 4.08694 13.1643 0.0532391 
4.11803 14.0511 0.0472184 4.15224 15.0111 0.0406647 4.18821 15.9441 0.0342291 
4.22724 16.8483 0.0278863 4.26993 17.7222 0.0216376 4.32028 18.6317 0.0149681 
4.37482 19.5082 0.00836612 4.44246 20.4855 0.000843412 4.51648 21.461 -0.00677431 
4.59563 22.4341 -0.0144051 4.67551 23.3707 -0.0217127 4.75143 24.238 -0.0283579 
4.83392 25.1697 -0.0353053 4.91911 26.1331 -0.0422122 4.9948 26.9961 -0.0481434 
5.0841 28.0252 -0.0549268 5.16415 28.9554 -0.0608286 5.2413 29.8534 -0.066365 
5.31609 30.7192 -0.07162 5.39466 31.6191 -0.0770623 5.46532 32.4193 -0.0819351 
-2.8142 31.2255 0.025524 -2.82979 30.4588 0.0285186 -2.85435 29.4615 0.0319115 
-2.88696 28.3057 0.0353826 -2.92226 27.0304 0.0391045 -2.95099 25.6392 0.043753 
-2.96435 24.093 0.0502879 -2.97249 22.2751 0.0603277 -3.02828 20.6263 0.0678487 
-3.1663 19.1417 0.0711649 -3.37551 17.8211 0.0709359 -3.64458 16.5545 0.0678158 
-3.8843 15.5272 0.0623387 -4.06215 14.6028 0.0594691 -4.14384 13.5659 0.0670725 
-4.1229 12.3006 0.0803948 -4.03861 10.7982 0.0914058 -3.92456 9.34276 0.0980325 
-3.7356 7.68545 0.102721 -3.47971 6.2338 0.105237 -3.18572 5.09486 0.106387 
-2.82121 4.07169 0.108566 -2.35954 3.09164 0.104955 -1.80486 2.18002 0.103383 
-1.0919 1.22229 0.118305 -0.147285 20.4647 -0.0308052 -0.333061 20.1347 -0.0255213 
-0.556689 19.7454 -0.0229021 -0.791502 19.3463 -0.0193413 -1.07003 18.8829 -0.0161659 
-1.35388 18.4179 -0.0140924 -1.64043 17.9558 -0.014778 -1.94665 17.4648 -0.0121705 
-2.28143 16.9369 -0.0158315 -2.58146 16.4703 -0.0161122 -2.85534 16.0593 -0.0217304 
-0.0903537 20.7453 -0.0384101 -0.310904 20.4197 -0.03215 -0.564208 20.0506 -0.0268209 
-0.809726 19.692 -0.0233098 -1.07497 19.3024 -0.0202266 -1.36008 18.8791 -0.0182111 
-1.63618 18.4626 -0.0153766 -1.93723 18.0024 -0.0138539 -2.23726 17.5367 -0.00992774 
-2.52232 17.0821 -0.00863083 -2.83089 16.5731 -0.00674674 5.06329 32.429 -0.34408 
4.76381 32.3824 -0.340371 4.45288 32.3129 -0.336352 4.17301 32.2027 -0.33242 
3.88189 32.1108 -0.328371 3.59944 32.045 -0.324462 3.29757 31.9622 -0.320142 
3.00872 31.8794 -0.315891 2.7095 31.8023 -0.31143 2.42219 31.7491 -0.307134 
2.12615 31.6849 -0.302639 1.82867 31.6211 -0.298084 1.52789 31.5606 -0.293509 
1.21082 31.5083 -0.288767 0.906222 31.4687 -0.284363 0.585085 31.4313 -0.27987 
0.28841 31.4025 -0.275866 -0.0282037 31.3907 -0.27188 -0.345591 31.3819 -0.26811 
-0.648002 31.3772 -0.264741 -0.960432 31.3737 -0.261369 -1.26089 31.3754 -0.258267 
-1.55116 31.3832 -0.255322 -1.83512 31.3756 -0.252368 -2.11564 31.311 -0.249121 
-2.41174 31.2195 -0.245561 1.06091 1.12405 -0.113081 1.70354 2.07517 -0.100542 
2.11382 2.8159 -0.103744 2.46274 3.5672 -0.10988 2.72557 4.2538 -0.116681 
2.94913 4.95657 -0.124202 3.12443 5.66315 -0.132312 3.2567 6.33166 -0.14006 
3.37592 6.97438 -0.146868 3.47222 7.66493 -0.154438 3.54562 8.36204 -0.161925 
3.60931 9.03534 -0.168843 3.65841 9.68912 -0.175405 3.70075 10.3762 -0.182143 
3.73606 11.0417 -0.188481 3.77437 11.7594 -0.195131 3.79651 12.4548 -0.201466 
3.82096 13.1535 -0.207673 3.84263 13.8816 -0.213973 3.86214 14.6048 -0.220067 
3.88519 15.2987 -0.225823 3.91866 16.0439 -0.231928 3.9434 16.7583 -0.237586 
3.97183 17.5021 -0.243347 4.01194 18.2502 -0.249085 4.0599 19.0032 -0.254792 
4.10939 19.7536 -0.260385 4.15815 20.4912 -0.265755 4.22335 21.2324 -0.271179 
4.28365 21.9606 -0.276382 4.34657 22.6765 -0.281452 4.41055 23.4237 -0.286653 
4.4742 24.1416 -0.291613 4.54939 24.8753 -0.296744 4.61582 25.5962 -0.301683 
4.67078 26.3312 -0.306544 4.73177 27.0629 -0.311406 4.79487 27.7354 -0.315918 
4.86303 28.4445 -0.320655 4.9224 29.1344 -0.32514 4.98899 29.8559 -0.329819 
5.05333 30.5883 -0.334462 5.11079 31.274 -0.338707 5.1818 31.9249 -0.342872 
-2.50053 29.5012 -0.237265 -2.4824 28.2767 -0.232127 -2.5044 26.7916 -0.225335 
-2.50726 25.1273 -0.217715 -2.48344 23.4931 -0.209774 -2.49234 22.0164 -0.202387 
-2.56638 20.3692 -0.193799 -2.75379 18.9643 -0.185349 -3.05487 17.5285 -0.176274 
-3.36318 16.3173 -0.16985 -3.64025 15.2528 -0.170342 -3.78873 14.2363 -0.171328 
-3.80997 13.1291 -0.167258 -3.73009 11.9648 -0.163353 -3.59405 10.5368 -0.15808 
-3.45346 9.0371 -0.152057 -3.27313 7.44702 -0.146211 -3.03343 5.97453 -0.142605 
-2.70649 4.62457 -0.143204 -2.20849 3.27297 -0.151748 -1.79798 2.28421 -0.167037 
-1.30066 1.46349 -0.195193 -0.606938 0.661592 -0.215079 -0.466616 0.570189 -0.191894 
-0.38892 0.517006 -0.181874 -0.311842 0.485754 -0.186982 -0.266667 0.486835 -0.185692 
-0.223977 0.48788 -0.181843 -0.175092 0.474767 -0.170496 -0.151085 0.482629 -0.163616 
-0.128925 0.474011 -0.170161 -0.0935622 0.487828 -0.181147 -0.0595599 0.493866 -0.181083 
-0.0251672 0.491959 -0.183748 0.00904316 0.503986 -0.181034 0.0215353 0.50374 -0.181119 
0.0578521 0.50426 -0.182228 0.0925041 0.498336 -0.183501 0.128097 0.493304 -0.184763 
0.168082 0.489251 -0.171343 0.191997 0.503582 -0.1649 0.221876 0.496876 -0.17161 
0.259932 0.48399 -0.180328 0.298551 0.468117 -0.183135 0.283749 0.377563 -0.171511 
0.381936 0.46258 -0.164419 0.54532 0.586354 -0.144069 -0.0112373 22.0708 -0.286623 
-0.472001 21.4885 -0.212147 -0.515693 20.8389 -0.181754 -0.653348 20.315 -0.176655 
-0.885897 19.8198 -0.177246 -1.14058 19.364 -0.177977 -1.38656 18.8904 -0.178293 
-1.64999 18.3914 -0.178074 -1.93617 17.8976 -0.176508 -2.23882 17.4258 -0.166759 
-2.55879 16.9176 -0.169137 -2.87194 16.364 -0.164873 -3.10357 15.0338 -0.201495 
0.0969236 21.2016 -0.203185 -0.105167 20.5919 -0.187509 -0.296983 20.0998 -0.186401 
-0.516982 19.6022 -0.187988 -0.744582 19.1499 -0.18994 -0.996833 18.6712 -0.190167 
-1.2763 18.1679 -0.188223 -1.5462 17.6975 -0.185329 -1.79663 17.2007 -0.188474 
-2.08285 16.6852 -0.191213 -2.35055 16.1615 -0.185999 -2.55232 15.5765 -0.187933 
-2.5505 30.4768 -0.240945 0.390753 22.4293 -0.267426 -0.499038 22.2291 -0.259723 
-3.21966 15.8826 -0.168238 -3.43299 14.8802 -0.184382 0.408556 21.9587 -0.242205 
-2.72034 14.878 -0.192876 4.57855 31.8091 -0.335292 4.2801 31.6228 -0.330845 
3.99466 31.499 -0.326811 3.7041 31.3943 -0.322761 3.39863 31.2852 -0.318451 
3.09955 31.2155 -0.314317 2.79556 31.1413 -0.310001 2.50383 31.0619 -0.305754 
2.21388 31.0104 -0.301588 1.9236 30.9617 -0.297386 1.6333 30.9079 -0.293138 
1.32627 30.8234 -0.288562 1.02327 30.7832 -0.284229 0.704841 30.7351 -0.279723 
0.400916 30.7225 -0.275606 0.103868 30.6959 -0.271668 -0.227672 30.6662 -0.267432 
-0.52925 30.6426 -0.263762 -0.825474 30.6721 -0.260435 -1.1441 30.694 -0.256955 
-1.4312 30.7238 -0.253946 -1.7054 30.7262 -0.251012 -1.96107 30.7365 -0.24832 
-2.0913 28.9658 -0.239531 1.64111 2.18901 -0.121291 2.02455 2.96312 -0.123473 
2.33102 3.69481 -0.126785 2.56442 4.38342 -0.131576 2.76612 5.12566 -0.137396 
2.92466 5.84846 -0.14371 3.04796 6.53085 -0.149749 3.14337 7.19615 -0.155822 
3.22901 7.89983 -0.162132 3.30848 8.62322 -0.168389 3.35789 9.28083 -0.17425 
3.39914 9.95305 -0.180168 3.43926 10.6328 -0.186043 3.47386 11.3536 -0.192153 
3.50115 12.085 -0.198268 3.51668 12.7564 -0.203827 3.53603 13.4775 -0.209689 
3.56636 14.2026 -0.215524 3.586 14.9224 -0.221171 3.61181 15.6269 -0.226674 
3.64114 16.3893 -0.232531 3.66792 17.0986 -0.237888 3.70545 17.8364 -0.243438 
3.75425 18.6021 -0.249178 3.7926 19.3258 -0.254447 3.84226 20.0804 -0.259942 
3.89588 20.7919 -0.2651 3.95944 21.5494 -0.270568 4.02809 22.2632 -0.275747 
4.10029 22.981 -0.280916 4.17227 23.7055 -0.286051 4.24029 24.436 -0.291124 
4.30484 25.1733 -0.296155 4.3567 25.9049 -0.300976 4.41397 26.6338 -0.305765 
4.47671 27.3522 -0.310495 4.5366 28.0199 -0.314863 4.61458 28.7406 -0.319668 
4.69245 29.451 -0.324361 4.77032 30.1732 -0.329071 4.8201 30.9075 -0.333468 
4.86888 31.693 -0.338067 -1.09916 1.34428 -0.184799 1.1823 1.41789 -0.123802 
-2.10163 27.4241 -0.233009 -2.07994 25.9031 -0.226841 -2.03329 24.1997 -0.218889 
-1.99671 22.6708 -0.208897 -2.02787 21.1245 -0.197195 -2.19645 19.6622 -0.186601 
-2.54056 18.1675 -0.177342 -3.5097 13.7238 -0.174918 -3.415 12.6023 -0.168923 
-3.24307 11.2262 -0.163694 -3.07356 9.78633 -0.158884 -2.90459 8.2129 -0.154049 
-2.704 6.65813 -0.150468 -2.44792 5.23513 -0.149593 -2.10297 3.95633 -0.152807 
-1.67653 2.85432 -0.159294 -0.844225 22.3861 -0.226678 -0.280242 23.2507 -0.259506 
-0.880022 1.21933 -0.176209 -0.708548 1.10985 -0.172455 -0.583169 1.05419 -0.172718 
-0.507564 1.07649 -0.17059 -0.428314 1.07227 -0.166312 -0.344227 1.04931 -0.163965 
-0.277728 1.06427 -0.164562 -0.217955 1.0811 -0.167067 -0.153477 1.08859 -0.17089 
-0.0866236 1.09211 -0.172918 -0.0233412 1.08838 -0.173778 0.0378644 1.09763 -0.174955 
0.0982799 1.08082 -0.174695 0.166376 1.08621 -0.175349 0.234523 1.08505 -0.173542 
0.305575 1.09031 -0.169169 0.378532 1.1034 -0.166037 0.457224 1.10576 -0.165012 
0.5458 1.10513 -0.165789 0.641735 1.10032 -0.165898 0.68711 0.991603 -0.160159 
0.805821 1.00908 -0.146364 -3.23886 14.2235 -0.183655 -0.835707 21.6576 -0.207041 
-1.22474 20.0322 -0.182475 -1.46009 19.5084 -0.180439 -1.69688 18.9298 -0.178321 
-1.9059 18.4018 -0.176229 -2.20573 18.0124 -0.174548 -2.50186 17.4607 -0.171862 
-2.88922 16.9031 -0.170096 -0.441366 19.0166 -0.191609 -1.90577 15.84 -0.184023 
-0.90648 17.9275 -0.188951 -0.0147217 20.2194 -0.198909 -1.66398 16.3802 -0.187058 
-2.23513 30.3183 -0.243607 -1.16314 17.4104 -0.187995 0.206576 23.2983 -0.266119 
-0.874301 20.9518 -0.190659 -0.974456 20.4074 -0.183702 0.200675 20.8879 -0.211102 
-0.224003 19.5914 -0.193587 -0.664238 18.4698 -0.190621 -1.41181 16.8885 -0.187883 
-2.13567 15.2503 -0.182736 -0.75918 23.3254 -0.243318 -2.91507 14.075 -0.184386 
0.636319 23.4592 -0.263318 0.418607 21.5527 -0.227211 -2.33289 14.5867 -0.183964 
0.667165 22.7117 -0.25568 4.12442 30.8922 -0.325386 3.81915 30.7352 -0.321017 
3.51539 30.6131 -0.316815 3.19781 30.4792 -0.312346 2.89243 30.3777 -0.308102 
2.58461 30.3372 -0.304008 2.29671 30.2984 -0.300114 2.01728 30.2549 -0.296264 
1.73208 30.2206 -0.292318 1.42692 30.0962 -0.28781 1.13764 29.9938 -0.283595 
0.818449 29.968 -0.279184 0.524592 29.9732 -0.275239 0.209436 29.9553 -0.271004 
-0.109645 29.8785 -0.266631 -0.427177 29.8325 -0.26248 -0.725207 29.8472 -0.258872 
-1.03952 29.9236 -0.255394 -1.34784 30.0087 -0.252157 -1.60283 30.0898 -0.249597 
-1.7013 26.6348 -0.234918 4.4953 31.0752 -0.330606 1.91316 3.13806 -0.137805 
2.186 3.86351 -0.139871 2.37147 4.54071 -0.143814 2.55684 5.31248 -0.148422 
2.69812 6.0445 -0.15327 2.803 6.72453 -0.158158 2.89376 7.43394 -0.16336 
2.97043 8.14377 -0.168561 3.03651 8.86824 -0.173948 3.08421 9.53747 -0.17903 
3.12904 10.2263 -0.184297 3.16089 10.9246 -0.189638 3.19311 11.6577 -0.195187 
3.20956 12.3853 -0.20069 3.22356 13.0728 -0.205859 3.24316 13.7968 -0.211264 
3.26667 14.5392 -0.216755 3.2952 15.2408 -0.221929 3.32247 15.9582 -0.227184 
3.35393 16.7064 -0.23266 3.38657 17.4277 -0.237894 3.42172 18.1779 -0.243292 
3.46915 18.9406 -0.248828 3.51351 19.6657 -0.254026 3.56825 20.391 -0.259285 
3.63001 21.124 -0.2646 3.69034 21.8585 -0.26986 3.75677 22.5469 -0.274841 
3.83238 23.2827 -0.280146 3.89893 24.0125 -0.285249 3.9632 24.7345 -0.29022 
4.02813 25.478 -0.295257 4.08253 26.2228 -0.30012 4.14029 26.9549 -0.304849 
4.20758 27.6389 -0.309348 4.28312 28.3425 -0.313982 4.35966 29.0632 -0.318667 
4.45191 29.7926 -0.323523 4.5607 30.4667 -0.328241 -1.71374 27.9737 -0.24002 
-1.56194 21.7537 -0.203132 -1.61824 25.0222 -0.229372 -3.13717 13.2984 -0.175899 
-1.5138 2.14811 -0.166802 1.18199 1.63936 -0.140374 -2.31488 7.32674 -0.157168 
-2.1187 5.86675 -0.155204 -1.86835 4.50265 -0.155706 -1.57893 3.37863 -0.158262 
-0.328221 18.3616 -0.195695 0.361316 20.4858 -0.215103 -1.15661 21.5554 -0.202034 
0.491403 24.3824 -0.263344 -1.17486 1.8835 -0.166575 -0.908996 1.6207 -0.167701 
-0.852388 1.76752 -0.165927 -0.716315 1.73244 -0.164708 -0.564932 1.63562 -0.163489 
-0.470028 1.68547 -0.163796 -0.383901 1.76752 -0.165451 -0.288029 1.79079 -0.167792 
-0.181479 1.77269 -0.170196 -0.0787042 1.7648 -0.172055 0.0170698 1.75479 -0.173253 
0.11106 1.74751 -0.173983 0.214117 1.75736 -0.173846 0.318352 1.77269 -0.172475 
0.429955 1.7907 -0.17011 0.5402 1.77981 -0.167492 0.663657 1.79818 -0.165647 
0.798119 1.79727 -0.164058 0.943008 1.79009 -0.161131 1.06388 1.71898 -0.153857 
-2.70655 10.5655 -0.165046 1.55073 2.35868 -0.138746 -1.19766 22.3637 -0.214823 
-1.80262 19.4967 -0.183003 -1.63877 20.3735 -0.189259 -0.105083 19.0062 -0.199035 
-2.94268 12.0353 -0.169686 -1.25845 16.0405 -0.187567 -1.54776 23.3316 -0.218952 
-0.548427 17.7471 -0.193468 -1.49766 15.5244 -0.18544 0.00140103 24.343 -0.258064 
0.12183 19.7222 -0.205013 -1.02202 16.5678 -0.189455 -1.72831 14.9378 -0.183236 
-2.49966 8.96944 -0.160833 -0.7759 17.1509 -0.19144 -1.88847 29.9517 -0.245871 
-2.52178 13.8278 -0.181626 -2.07141 18.7884 -0.179422 0.604026 21.2904 -0.227815 
-1.11606 23.1753 -0.2271 0.917239 24.406 -0.265126 -1.93611 14.3139 -0.182225 
0.788486 22.2474 -0.243941 -0.546967 24.3793 -0.248276 1.01003 23.3688 -0.258868 
-1.30562 27.2897 -0.24285 3.64252 29.9109 -0.314981 3.31527 29.7218 -0.310306 
2.99518 29.5852 -0.305922 2.66982 29.4867 -0.301596 2.37382 29.4539 -0.29784 
2.08309 29.4661 -0.29427 1.80473 29.4209 -0.290568 1.53592 29.4021 -0.287039 
1.2513 29.1011 -0.282441 0.951763 29.1067 -0.278531 0.620624 29.1708 -0.274308 
0.328529 29.1772 -0.27044 0.00373605 29.1044 -0.265915 -0.31921 28.9731 -0.261284 
-0.638476 28.9495 -0.257054 -0.971948 29.0585 -0.253242 -1.27093 29.2741 -0.250361 
-1.63684 29.2 -0.245746 -1.2307 25.9267 -0.239204 -2.72292 12.9595 -0.176282 
-1.73795 6.43919 -0.160695 1.99483 3.99902 -0.150254 2.15995 4.71775 -0.153643 
2.31029 5.48002 -0.157306 2.43505 6.23644 -0.161246 2.53229 6.94306 -0.165248 
2.6141 7.66921 -0.169571 2.68349 8.41675 -0.174163 2.73551 9.1086 -0.17858 
2.77625 9.79399 -0.18307 2.80956 10.5009 -0.187806 2.83666 11.2334 -0.192716 
2.86183 11.9708 -0.197678 2.88731 12.6662 -0.202405 2.90541 13.3863 -0.207326 
2.93012 14.12 -0.212355 2.95439 14.8489 -0.217345 2.98301 15.5559 -0.222218 
3.01477 16.2999 -0.227375 3.04825 17.0256 -0.232434 3.07679 17.7728 -0.237568 
3.11837 18.5206 -0.242809 3.1605 19.266 -0.248026 3.2057 19.9862 -0.253101 
3.25508 20.7207 -0.258302 3.31548 21.4671 -0.263656 3.38524 22.165 -0.268766 
3.45362 22.8594 -0.273799 3.53636 23.5999 -0.279194 3.62038 24.3023 -0.284293 
3.68029 25.045 -0.289311 3.71164 25.7737 -0.293882 3.77331 26.5279 -0.29877 
3.85003 27.2641 -0.303629 3.92872 27.955 -0.308177 4.02371 28.7404 -0.313333 
4.13107 29.5216 -0.318559 -1.10389 24.3818 -0.236603 0.319175 25.4256 -0.261728 
-0.855842 15.695 -0.189762 0.281507 19.0647 -0.208161 -0.615652 16.2567 -0.192482 
-1.24187 2.39605 -0.162644 -1.57934 5.01015 -0.159273 -1.372 3.7982 -0.159623 
0.821183 25.4799 -0.26733 -1.88624 8.09648 -0.163622 -1.10365 2.6684 -0.161756 
-0.833862 2.33729 -0.162847 -0.687907 2.2908 -0.163377 -0.614013 2.51797 -0.164482 
-0.473083 2.5649 -0.166456 -0.323554 2.5241 -0.168583 -0.174235 2.49976 -0.170652 
-0.0395448 2.52017 -0.172139 0.0968982 2.522 -0.173121 0.229415 2.49403 -0.173396 
0.368409 2.506 -0.172715 0.519703 2.56572 -0.171299 0.673916 2.56933 -0.169399 
0.836064 2.55572 -0.167118 1.00162 2.54574 -0.164517 1.18726 2.52285 -0.160345 